LAMMPS data file generated get_lammps_data.py [VK]

864 atoms
2 atom types

0.0 77.556 xlo xhi
0.0 38.51574157664105 ylo yhi
0.0 14.982984532710296 zlo zhi
-4.510930258982461 -0.020920207748600705 -0.005083057332242448 xy xz yz

Masses

1 1.008
2 15.999

Atoms

    1     2 4.58  25.785999999999998  2.537
    2     1 4.929000000000001  24.867999999999995  2.6100000000000003
    3     1 5.333  26.378999999999998  2.674
    4     2 -0.02199999999999928  23.918999999999997  2.455
    5     1 -0.9149999999999995  24.127999999999997  2.755
    6     1 0.5450000000000005  24.671999999999993  2.6150000000000007
    7     2 4.985  22.686999999999994  2.4780000000000006
    8     1 5.979  22.511999999999997  2.5210000000000004
    9     1 4.837  22.915999999999997  1.55
   10     2 3.511  30.561999999999994  2.525
   11     1 3.3220000000000014  31.554999999999993  2.568
   12     1 3.2820000000000005  30.303999999999995  3.4030000000000005
   13     2 3.5589999999999997  20.182999999999996  2.5990000000000006
   14     1 2.697000000000001  20.439999999999998  2.246
   15     1 4.071000000000001  21.010999999999996  2.5880000000000005
   16     2 0.9340000000000006  28.908999999999992  2.4300000000000006
   17     1 1.3500000000000012  28.057999999999993  2.519
   18     1 1.6890000000000005  29.467999999999993  2.1450000000000005
   19     2 1.997000000000001  26.242999999999995  2.4240000000000004
   20     1 1.7570000000000008  26.370999999999995  1.5100000000000002
   21     1 2.9770000000000003  26.081999999999994  2.366
   22     2 6.965000000000001  27.55999999999999  2.5060000000000002
   23     1 6.823000000000001  28.539999999999996  2.595
   24     1 7.01  27.42299999999999  1.566
   25     2 10.683000000000002  31.850999999999992  2.4840000000000004
   26     1 10.900999999999998  30.918999999999997  2.5610000000000004
   27     1 11.455000000000002  32.46699999999999  2.667
   28     2 6.378  30.134999999999998  2.573
   29     1 5.441000000000001  30.289999999999996  2.409
   30     1 6.869999999999998  30.971999999999994  2.4120000000000004
   31     2 11.611  29.200999999999993  2.4620000000000006
   32     1 12.557000000000002  29.170999999999996  2.6540000000000004
   33     1 11.466000000000001  29.059999999999995  1.5190000000000001
   34     2 9.176000000000002  37.135999999999996  2.46
   35     1 8.677000000000001  37.98599999999999  2.3800000000000003
   36     1 9.224  37.03099999999999  3.4220000000000006
   37     2 9.808999999999997  26.735999999999997  2.564
   38     1 8.910000000000002  27.001999999999992  2.646
   39     1 10.414  27.483999999999998  2.639
   40     2 6.811  35.35399999999999  2.4280000000000004
   41     1 7.001000000000001  34.41599999999999  2.36
   42     1 7.603000000000001  35.843999999999994  2.284
   43     2 7.872  32.57599999999999  2.543
   44     1 8.796999999999999  32.343999999999994  2.465
   45     1 7.694000000000001  32.583999999999996  3.484
   46     2 12.590000000000002  34.03099999999999  2.559
   47     1 12.404  34.98899999999999  2.674
   48     1 12.552  33.85099999999999  1.618
   49     2 6.452999999999999  12.725999999999999  2.4080000000000004
   50     1 6.851  11.827999999999998  2.5380000000000003
   51     1 7.144  13.368999999999998  2.558
   52     2 2.4589999999999996  10.726999999999999  2.5500000000000003
   53     1 1.5790000000000004  10.987999999999998  2.241
   54     1 2.9140000000000006  11.549999999999999  2.836
   55     2 7.575  9.908999999999999  2.454
   56     1 8.519  9.964999999999998  2.6980000000000004
   57     1 7.690000000000001  9.871999999999998  1.503
   58     2 4.562999999999999  17.737999999999996  2.5600000000000005
   59     1 4.219  18.650999999999996  2.366
   60     1 4.516  17.690999999999995  3.5140000000000002
   61     2 5.771  7.625999999999999  2.497
   62     1 4.841  7.912999999999999  2.439
   63     1 6.309  8.394999999999998  2.661
   64     2 2.58  15.680999999999997  2.442
   65     1 3.0140000000000002  14.802999999999999  2.3740000000000006
   66     1 3.2720000000000007  16.325999999999997  2.2260000000000004
   67     2 3.7360000000000007  13.183999999999997  2.444
   68     1 3.8449999999999998  13.255999999999998  1.487
   69     1 4.595  13.161999999999999  2.8450000000000006
   70     2 8.461999999999998  14.802999999999997  2.4790000000000005
   71     1 8.189  15.689999999999996  2.799
   72     1 8.511000000000001  14.820999999999996  1.4880000000000002
   73     2 11.479  19.662999999999997  2.4620000000000006
   74     1 11.932000000000002  18.843999999999998  2.198
   75     1 12.204999999999998  20.295999999999996  2.422
   76     2 7.339  17.352999999999998  2.529
   77     1 6.406  17.492999999999995  2.371
   78     1 7.784999999999998  18.189999999999998  2.6870000000000003
   79     2 12.873000000000001  16.797999999999995  2.5210000000000004
   80     1 12.98  16.856999999999996  3.445
   81     1 13.78  16.688999999999997  2.252
   82     2 10.133  24.03099999999999  2.498
   83     1 10.582  24.059999999999995  1.6420000000000001
   84     1 10.013000000000002  24.980999999999995  2.694
   85     2 11.528  14.185999999999998  2.5490000000000004
   86     1 10.600000000000001  14.338999999999999  2.6160000000000005
   87     1 11.964999999999998  15.027999999999997  2.3370000000000006
   88     2 7.632  22.386999999999997  2.4620000000000006
   89     1 7.947000000000001  21.476999999999997  2.4400000000000004
   90     1 8.405999999999999  22.922999999999995  2.652
   91     2 8.751  19.737999999999996  2.5050000000000003
   92     1 8.974  19.469999999999995  1.588
   93     1 9.704  19.882999999999996  2.799
   94     2 13.701000000000002  21.559999999999995  2.5050000000000003
   95     1 13.466  22.483999999999998  2.613
   96     1 13.895000000000001  21.521999999999995  1.5760000000000003
   97     2 17.417  25.723999999999993  2.392
   98     1 17.617999999999995  24.856999999999992  2.803
   99     1 18.199  26.293999999999997  2.504
  100     2 13.002999999999998  24.065999999999992  2.4680000000000004
  101     1 12.257  24.234999999999996  3.0420000000000003
  102     1 13.582  24.829999999999995  2.5340000000000003
  103     2 18.126  22.998999999999995  2.519
  104     1 19.106000000000005  22.843999999999998  2.4840000000000004
  105     1 17.903  23.123999999999995  1.608
  106     2 16.411  30.970999999999993  2.4130000000000003
  107     1 16.058  30.65299999999999  1.5980000000000003
  108     1 16.043  31.869999999999997  2.4900000000000007
  109     2 16.631  20.775999999999996  2.48
  110     1 15.699  21.002999999999997  2.592
  111     1 17.093999999999998  21.612999999999992  2.7300000000000004
  112     2 14.283999999999999  29.150999999999993  2.661
  113     1 14.565  28.233999999999995  2.793
  114     1 14.93  29.718999999999994  3.0980000000000003
  115     2 14.753000000000002  26.347999999999995  2.481
  116     1 14.592000000000002  26.411999999999995  1.556
  117     1 15.72  26.084999999999997  2.562
  118     2 19.626  27.525999999999996  2.4740000000000006
  119     1 19.47  28.548999999999992  2.4740000000000006
  120     1 19.977  27.400999999999996  1.586
  121     2 23.368  32.178999999999995  2.493
  122     1 23.672000000000004  31.244999999999997  2.492
  123     1 24.197  32.718999999999994  2.458
  124     2 19.13  30.237999999999992  2.564
  125     1 18.210999999999995  30.543999999999993  2.502
  126     1 19.695999999999998  30.967999999999993  2.2980000000000005
  127     2 24.312  29.445999999999998  2.525
  128     1 25.217999999999996  29.342999999999993  2.908
  129     1 24.539000000000005  29.106999999999996  1.6560000000000001
  130     2 22.033  37.19199999999999  2.5890000000000004
  131     1 21.803  38.09799999999999  2.3750000000000004
  132     1 22.081999999999997  37.199999999999996  3.5180000000000002
  133     2 22.518  27.219999999999995  2.535
  134     1 21.64  27.435999999999993  2.9170000000000003
  135     1 23.123  27.955999999999992  2.7090000000000005
  136     2 19.926000000000002  35.184999999999995  2.476
  137     1 20.204000000000004  34.278999999999996  2.334
  138     1 20.74  35.714999999999996  2.475
  139     2 20.871  32.58899999999999  2.507
  140     1 21.897  32.53999999999999  2.4130000000000003
  141     1 20.835  32.67699999999999  3.4760000000000004
  142     2 25.595  34.03099999999999  2.485
  143     1 25.262  34.86599999999999  2.787
  144     1 25.889  34.24099999999999  1.575
  145     2 3.310000000000001  38.32399999999999  2.519
  146     1 3.665000000000001  37.492999999999995  2.876
  147     1 8.398  0.5109999999999999  2.8630000000000004
  148     2 -1.0379999999999991  36.12899999999999  2.5060000000000002
  149     1 -1.969999999999999  36.379999999999995  2.48
  150     1 -0.49399999999999955  36.93399999999999  2.488
  151     2 4.186000000000002  35.733999999999995  2.584
  152     1 5.159  35.72899999999999  2.5100000000000002
  153     1 3.9520000000000004  35.86899999999999  1.6640000000000001
  154     2 6.232  4.902999999999999  2.578
  155     1 6.611999999999999  4.9049999999999985  1.6690000000000003
  156     1 5.992000000000001  5.837999999999998  2.74
  157     2 3.062000000000001  33.22099999999999  2.52
  158     1 2.1470000000000007  33.36999999999999  2.8400000000000003
  159     1 3.5540000000000007  34.02199999999999  2.787
  160     2 4.147  3.0409999999999995  2.513
  161     1 4.545  2.1719999999999997  2.57
  162     1 4.838000000000001  3.7049999999999996  2.739
  163     2 5.057  0.10399999999999997  2.3960000000000004
  164     1 4.973  0.09199999999999997  1.4440000000000002
  165     1 6.013  0.013999999999999992  2.504
  166     2 9.707  1.9689999999999999  2.477
  167     1 9.456  2.8829999999999996  2.667
  168     1 9.715  1.9089999999999996  1.474
  169     2 13.698  6.127999999999999  2.409
  170     1 13.96  5.199999999999999  2.496
  171     1 14.525  6.630999999999999  2.176
  172     2 9.143  4.688999999999999  2.448
  173     1 8.259  4.879999999999999  2.781
  174     1 9.620999999999999  5.535999999999999  2.4890000000000003
  175     2 14.428999999999998  3.2259999999999995  2.552
  176     1 15.383  3.3119999999999994  2.7090000000000005
  177     1 14.314999999999998  3.0969999999999995  1.5890000000000002
  178     2 12.629  11.585999999999997  2.578
  179     1 12.434  12.465999999999998  2.228
  180     1 12.436  11.679999999999998  3.5190000000000006
  181     2 12.573  1.1049999999999998  2.5110000000000006
  182     1 11.709000000000001  1.4319999999999995  2.7030000000000003
  183     1 13.215  1.8169999999999997  2.7680000000000002
  184     2 10.368  9.817999999999998  2.4570000000000003
  185     1 10.72  8.957999999999998  2.2310000000000003
  186     1 11.062999999999999  10.474999999999996  2.3860000000000006
  187     2 11.11  6.997999999999998  2.525
  188     1 11.962  6.655999999999999  2.268
  189     1 11.142000000000001  6.9799999999999995  3.478
  190     2 16.152  8.092999999999998  2.464
  191     1 16.019  7.882999999999998  3.3670000000000004
  192     1 15.673  8.926999999999998  2.277
  193     2 19.344  13.256999999999998  2.475
  194     1 19.75  12.393999999999998  2.6810000000000005
  195     1 20.049  13.887999999999996  2.3360000000000003
  196     2 15.369  10.935999999999996  2.4680000000000004
  197     1 14.422  11.046999999999999  2.4610000000000003
  198     1 15.761000000000001  11.785999999999998  2.229
  199     2 20.225  10.512999999999998  2.464
  200     1 21.123  10.175999999999998  2.394
  201     1 20.004999999999995  10.800999999999998  1.5870000000000002
  202     2 17.624999999999996  18.399999999999995  2.492
  203     1 17.292  19.259  2.268
  204     1 17.541  18.371999999999996  3.446
  205     2 18.934  7.940999999999998  2.559
  206     1 17.991  8.143999999999998  2.5440000000000005
  207     1 19.358  8.807999999999998  2.5050000000000003
  208     2 15.474  16.440999999999995  2.5380000000000003
  209     1 15.793000000000001  15.539999999999996  2.4680000000000004
  210     1 16.209  17.036999999999995  2.361
  211     2 16.714  13.769999999999998  2.547
  212     1 17.654  13.797999999999998  2.355
  213     1 16.592  13.602999999999998  3.477
  214     2 21.383  15.257999999999997  2.4620000000000006
  215     1 21.36  15.495999999999997  3.4
  216     1 21.1  16.103999999999996  2.088
  217     2 24.82  19.212999999999997  2.437
  218     1 25.145  18.415999999999997  2.015
  219     1 25.434  19.93799999999999  2.223
  220     2 20.409  17.802999999999997  2.5270000000000006
  221     1 19.51  17.809999999999995  2.25
  222     1 20.787999999999997  18.664999999999996  2.441
  223     2 25.878999999999998  16.485999999999997  2.546
  224     1 25.758  16.947999999999997  3.3980000000000006
  225     1 26.827  16.233999999999998  2.5660000000000003
  226     2 23.045000000000005  24.595999999999993  2.5000000000000004
  227     1 22.852  25.551999999999992  2.507
  228     1 23.286  24.378999999999994  3.4220000000000006
  229     2 24.163  14.343999999999998  2.4840000000000004
  230     1 23.271  14.610999999999999  2.3200000000000003
  231     1 24.778  15.078999999999999  2.4
  232     2 20.895  22.662999999999997  2.455
  233     1 21.279  21.749999999999996  2.5000000000000004
  234     1 21.560999999999996  23.278999999999996  2.121
  235     2 22.326999999999998  20.046999999999997  2.59
  236     1 23.138  19.578  2.301
  237     1 22.336999999999996  20.002999999999997  3.5420000000000003
  238     2 27.021  20.991999999999997  2.503
  239     1 26.808  20.989999999999995  3.429
  240     1 26.683999999999997  21.888999999999996  2.251
  241     2 30.234000000000005  25.703999999999994  2.5330000000000004
  242     1 30.701999999999998  24.898999999999994  2.82
  243     1 30.864000000000004  26.39099999999999  2.777
  244     2 25.736  23.525999999999993  2.58
  245     1 24.938  23.862999999999996  2.136
  246     1 26.308  24.361999999999995  2.574
  247     2 31.364  22.96999999999999  2.525
  248     1 32.265  22.619999999999997  2.625
  249     1 31.094  22.833999999999996  1.608
  250     2 29.195000000000004  30.936999999999998  2.4790000000000005
  251     1 29.007  31.806999999999995  2.0560000000000005
  252     1 29.018999999999995  31.208999999999996  3.4220000000000006
  253     2 29.867  20.414999999999996  2.5440000000000005
  254     1 28.931  20.595999999999997  2.6160000000000005
  255     1 30.318  21.210999999999995  2.9170000000000003
  256     2 27.041999999999998  28.875999999999994  2.41
  257     1 27.228  28.006999999999998  2.7800000000000002
  258     1 27.91  29.299999999999997  2.378
  259     2 27.444  25.770999999999994  2.4680000000000004
  260     1 27.398000000000003  25.927999999999997  1.533
  261     1 28.396  25.651999999999997  2.6650000000000005
  262     2 32.596  27.451999999999995  2.443
  263     1 32.459  28.419999999999995  2.466
  264     1 32.627  27.269999999999996  1.5180000000000002
  265     2 -2.2609999999999992  31.740999999999993  2.499
  266     1 -2.0779999999999994  30.754999999999995  2.4950000000000006
  267     1 -1.5419999999999996  32.13499999999999  3.033
  268     2 31.94  30.14399999999999  2.548
  269     1 31.054  30.542999999999996  2.433
  270     1 32.564  30.866999999999994  2.469
  271     2 -1.7759999999999994  28.955999999999992  2.5230000000000006
  272     1 -0.8659999999999993  28.799999999999997  2.836
  273     1 -1.7399999999999993  28.731999999999992  1.6040000000000003
  274     2 -3.9869999999999988  36.98899999999999  2.313
  275     1 -4.312999999999999  37.019999999999996  1.433
  276     1 -4.078  37.907999999999994  2.652
  277     2 35.353  26.682999999999996  2.502
  278     1 34.457  27.064999999999998  2.493
  279     1 -2.8739999999999997  27.422999999999995  2.794
  280     2 32.659000000000006  34.901999999999994  2.475
  281     1 33.034  34.04099999999999  2.793
  282     1 33.412  35.528999999999996  2.641
  283     2 33.839  32.346999999999994  2.497
  284     1 34.438  32.547999999999995  1.734
  285     1 34.521  32.19599999999999  3.2020000000000004
  286     2 0.1910000000000013  33.58599999999999  2.5820000000000003
  287     1 -0.21399999999999955  34.43699999999999  2.776
  288     1 -0.06799999999999974  33.459999999999994  1.6500000000000001
  289     2 16.482  38.404999999999994  2.559
  290     1 16.731000000000005  37.461999999999996  2.7360000000000007
  291     1 21.745999999999995  0.4779999999999998  2.6700000000000004
  292     2 11.890000000000002  36.63099999999999  2.5660000000000003
  293     1 10.954000000000002  36.84599999999999  2.35
  294     1 12.466000000000001  37.407999999999994  2.5230000000000006
  295     2 17.246  35.74499999999999  2.532
  296     1 18.154  35.428999999999995  2.613
  297     1 17.265  36.03399999999999  1.597
  298     2 18.93  5.216999999999999  2.568
  299     1 19.053  6.0969999999999995  2.2710000000000004
  300     1 18.964  5.316999999999999  3.5200000000000005
  301     2 15.221  33.40599999999999  2.454
  302     1 14.311999999999998  33.709999999999994  2.6380000000000003
  303     1 15.777  34.18399999999999  2.513
  304     2 17.123  3.1499999999999995  2.5220000000000002
  305     1 17.464  2.2879999999999994  2.5720000000000005
  306     1 17.879  3.7289999999999996  2.486
  307     2 18.193  0.43999999999999995  2.327
  308     1 18.281  0.6119999999999999  1.3930000000000002
  309     1 19.097  0.2529999999999999  2.6150000000000007
  310     2 23.114  1.9869999999999997  2.458
  311     1 22.768  2.855999999999999  2.7420000000000004
  312     1 22.83  1.9629999999999996  1.5410000000000001
  313     2 26.276  6.351999999999999  2.54
  314     1 26.581  5.418999999999999  2.5830000000000006
  315     1 27.068000000000005  6.924999999999998  2.673
  316     2 21.975999999999996  4.444999999999999  2.4780000000000006
  317     1 21.079  4.752999999999999  2.4510000000000005
  318     1 22.562  5.193999999999999  2.1490000000000005
  319     2 27.402  3.563999999999999  2.5930000000000004
  320     1 27.19  3.3779999999999997  3.5290000000000004
  321     1 28.402  3.474999999999999  2.535
  322     2 24.887  11.746999999999996  2.411
  323     1 24.947  11.787999999999997  1.448
  324     1 24.657  12.640999999999996  2.684
  325     2 25.818  1.2469999999999999  2.504
  326     1 24.873999999999995  1.5239999999999998  2.5060000000000002
  327     1 26.316  2.0809999999999995  2.277
  328     2 22.661  9.705999999999998  2.4890000000000003
  329     1 23.044000000000004  8.830999999999998  2.6470000000000002
  330     1 23.365  10.323999999999996  2.5000000000000004
  331     2 23.617  6.7379999999999995  2.578
  332     1 24.573  6.6979999999999995  2.404
  333     1 23.504999999999995  6.536999999999999  3.528
  334     2 28.532999999999998  8.038999999999998  2.469
  335     1 28.175999999999995  8.932999999999998  2.6800000000000006
  336     1 28.726  8.073999999999998  1.533
  337     2 32.027  12.952999999999998  2.488
  338     1 32.384  12.072999999999997  2.4680000000000004
  339     1 32.781  13.462999999999996  2.755
  340     2 27.606999999999996  10.629999999999999  2.5160000000000005
  341     1 26.74  11.023999999999997  2.563
  342     1 28.179  11.378999999999996  2.312
  343     2 32.952  10.232  2.496
  344     1 33.854  10.320999999999998  2.8390000000000004
  345     1 33.089  10.183999999999997  1.5430000000000001
  346     2 30.651  17.870999999999995  2.508
  347     1 30.767  17.857999999999997  1.5460000000000003
  348     1 30.172  18.743999999999996  2.6600000000000006
  349     2 31.494999999999997  7.697999999999999  2.4290000000000003
  350     1 30.624  7.802999999999999  2.821
  351     1 32.016  8.503999999999998  2.459
  352     2 28.453  15.935999999999996  2.487
  353     1 28.742999999999995  15.049999999999997  2.7900000000000005
  354     1 29.227  16.506999999999998  2.718
  355     2 29.272999999999996  13.154999999999996  2.5380000000000003
  356     1 29.549999999999997  13.321999999999997  1.638
  357     1 30.116  12.977999999999998  2.969
  358     2 34.424  14.604999999999999  2.5340000000000003
  359     1 34.103  15.446999999999996  2.865
  360     1 34.137  14.723999999999997  1.6150000000000002
  361     2 -0.9509999999999995  19.043999999999997  2.5720000000000005
  362     1 -0.5789999999999995  18.158999999999995  2.4080000000000004
  363     1 -0.3329999999999995  19.717999999999996  2.2050000000000005
  364     2 33.345  17.122999999999998  2.508
  365     1 32.502  17.488999999999997  2.842
  366     1 34.006  17.780999999999995  2.6370000000000005
  367     2 0.10300000000000029  16.534999999999997  2.574
  368     1 0.04000000000000013  16.426999999999996  3.4980000000000007
  369     1 1.025  16.274999999999995  2.37
  370     2 74.678  24.083999999999993  2.381
  371     1 -2.7509999999999994  24.078999999999997  1.446
  372     1 74.426  25.043999999999997  2.507
  373     2 37.132  14.107999999999999  2.493
  374     1 36.129  14.278999999999998  2.5330000000000004
  375     1 -1.1709999999999996  14.952999999999996  2.34
  376     2 33.908  21.859999999999992  2.4170000000000003
  377     1 34.252  20.985999999999997  2.592
  378     1 34.559  22.521999999999995  2.602
  379     2 35.146  19.279999999999998  2.546
  380     1 35.156  19.238999999999997  1.563
  381     1 36.107  19.234999999999996  2.7040000000000006
  382     2 0.8000000000000006  21.244999999999997  2.4680000000000004
  383     1 0.8870000000000006  21.314999999999998  3.402
  384     1 0.5460000000000002  22.166999999999998  2.192
  385     2 33.85393026  0.19725841999999996  2.444
  386     1 29.642999999999997  37.831999999999994  2.656
  387     1 34.55  0.8099999999999999  2.6150000000000007
  388     2 24.829  36.83299999999999  2.492
  389     1 23.856999999999996  36.983999999999995  2.361
  390     1 25.265  37.61699999999999  2.187
  391     2 30.059  35.79599999999999  2.476
  392     1 30.962  35.517999999999994  2.6420000000000003
  393     1 30.046999999999997  35.88199999999999  1.495
  394     2 32.326  5.199999999999999  2.477
  395     1 32.412  5.250999999999999  1.522
  396     1 32.063  6.120999999999999  2.674
  397     2 28.730999999999998  33.38499999999999  2.47
  398     1 27.848000000000003  33.68699999999999  2.723
  399     1 29.322000000000003  34.13399999999999  2.689
  400     2 30.19  3.1469999999999994  2.5770000000000004
  401     1 30.622  2.2949999999999995  2.388
  402     1 30.846  3.8369999999999993  2.657
  403     2 31.159  0.5749999999999998  2.5330000000000004
  404     1 32.083  0.4889999999999999  2.3460000000000005
  405     1 31.091999999999995  0.42499999999999993  3.455
  406     2 35.983  1.9269999999999996  2.502
  407     1 35.793  2.8819999999999997  2.508
  408     1 36.245  1.7819999999999998  1.6040000000000003
  409     2 0.71  6.299999999999999  2.5160000000000005
  410     1 1.0019999999999998  5.461999999999999  2.869
  411     1 1.436  6.839999999999998  2.246
  412     2 35.206  4.613999999999999  2.4940000000000007
  413     1 34.273  4.773999999999999  2.4340000000000006
  414     1 35.577  5.499999999999999  2.425
  415     2 1.5259999999999998  3.605999999999999  2.466
  416     1 2.511  3.517999999999999  2.4940000000000007
  417     1 1.374  4.010999999999999  1.596
  418     2 -0.5139999999999998  11.497999999999996  2.415
  419     1 -0.8619999999999997  11.291999999999998  1.523
  420     1 -0.7019999999999996  12.441999999999997  2.4670000000000005
  421     2 38.86699999999999  1.2139999999999995  2.525
  422     1 38.049  1.5049999999999997  2.9390000000000005
  423     1 0.68  2.0009999999999994  2.5600000000000005
  424     2 35.804  9.957999999999997  2.613
  425     1 36.076  9.037999999999998  2.596
  426     1 36.58  10.478999999999996  2.865
  427     2 36.576  7.1099999999999985  2.563
  428     1 37.491  6.881999999999998  2.3520000000000003
  429     1 36.57  7.086999999999998  3.554
  430     2 2.988  8.185999999999998  2.5660000000000003
  431     1 2.789  8.113999999999999  3.484
  432     1 2.7709999999999995  9.060999999999998  2.328
  433     2 43.358000000000004  25.785999999999998  2.537
  434     1 43.707  24.867999999999995  2.6100000000000003
  435     1 44.111  26.378999999999998  2.674
  436     2 38.75599999999999  23.918999999999997  2.455
  437     1 37.863  24.127999999999997  2.755
  438     1 39.32299999999999  24.671999999999993  2.6150000000000007
  439     2 43.763  22.686999999999994  2.4780000000000006
  440     1 44.757  22.511999999999997  2.5210000000000004
  441     1 43.615  22.915999999999997  1.55
  442     2 42.289  30.561999999999994  2.525
  443     1 42.1  31.554999999999993  2.568
  444     1 42.06000000000001  30.303999999999995  3.4030000000000005
  445     2 42.337  20.182999999999996  2.5990000000000006
  446     1 41.475  20.439999999999998  2.246
  447     1 42.84899999999999  21.010999999999996  2.5880000000000005
  448     2 39.712  28.908999999999992  2.4300000000000006
  449     1 40.12799999999999  28.057999999999993  2.519
  450     1 40.46699999999999  29.467999999999993  2.1450000000000005
  451     2 40.775  26.242999999999995  2.4240000000000004
  452     1 40.535  26.370999999999995  1.5100000000000002
  453     1 41.755  26.081999999999994  2.366
  454     2 45.743  27.55999999999999  2.5060000000000002
  455     1 45.601  28.539999999999996  2.595
  456     1 45.788  27.42299999999999  1.566
  457     2 49.461  31.850999999999992  2.4840000000000004
  458     1 49.678999999999995  30.918999999999997  2.5610000000000004
  459     1 50.233  32.46699999999999  2.667
  460     2 45.156000000000006  30.134999999999998  2.573
  461     1 44.21900000000001  30.289999999999996  2.409
  462     1 45.648  30.971999999999994  2.4120000000000004
  463     2 50.389  29.200999999999993  2.4620000000000006
  464     1 51.335  29.170999999999996  2.6540000000000004
  465     1 50.24399999999999  29.059999999999995  1.5190000000000001
  466     2 47.954  37.135999999999996  2.46
  467     1 47.455  37.98599999999999  2.3800000000000003
  468     1 48.002  37.03099999999999  3.4220000000000006
  469     2 48.587  26.735999999999997  2.564
  470     1 47.688  27.001999999999992  2.646
  471     1 49.192  27.483999999999998  2.639
  472     2 45.589  35.35399999999999  2.4280000000000004
  473     1 45.779  34.41599999999999  2.36
  474     1 46.381  35.843999999999994  2.284
  475     2 46.65  32.57599999999999  2.543
  476     1 47.57500000000001  32.343999999999994  2.465
  477     1 46.471999999999994  32.583999999999996  3.484
  478     2 51.368  34.03099999999999  2.559
  479     1 51.181999999999995  34.98899999999999  2.674
  480     1 51.33  33.85099999999999  1.618
  481     2 45.231  12.725999999999999  2.4080000000000004
  482     1 45.62899999999999  11.827999999999998  2.5380000000000003
  483     1 45.922  13.368999999999998  2.558
  484     2 41.237  10.726999999999999  2.5500000000000003
  485     1 40.357  10.987999999999998  2.241
  486     1 41.692  11.549999999999999  2.836
  487     2 46.353  9.908999999999999  2.454
  488     1 47.297  9.964999999999998  2.6980000000000004
  489     1 46.468  9.871999999999998  1.503
  490     2 43.340999999999994  17.737999999999996  2.5600000000000005
  491     1 42.99699999999999  18.650999999999996  2.366
  492     1 43.294  17.690999999999995  3.5140000000000002
  493     2 44.549  7.625999999999999  2.497
  494     1 43.619  7.912999999999999  2.439
  495     1 45.086999999999996  8.394999999999998  2.661
  496     2 41.358  15.680999999999997  2.442
  497     1 41.791999999999994  14.802999999999999  2.3740000000000006
  498     1 42.05  16.325999999999997  2.2260000000000004
  499     2 42.513999999999996  13.183999999999997  2.444
  500     1 42.623  13.255999999999998  1.487
  501     1 43.373  13.161999999999999  2.8450000000000006
  502     2 47.24  14.802999999999997  2.4790000000000005
  503     1 46.967  15.689999999999996  2.799
  504     1 47.289  14.820999999999996  1.4880000000000002
  505     2 50.257  19.662999999999997  2.4620000000000006
  506     1 50.709999999999994  18.843999999999998  2.198
  507     1 50.983  20.295999999999996  2.422
  508     2 46.117  17.352999999999998  2.529
  509     1 45.18399999999999  17.492999999999995  2.371
  510     1 46.563  18.189999999999998  2.6870000000000003
  511     2 51.650999999999996  16.797999999999995  2.5210000000000004
  512     1 51.758  16.856999999999996  3.445
  513     1 52.55799999999999  16.688999999999997  2.252
  514     2 48.911  24.03099999999999  2.498
  515     1 49.36000000000001  24.059999999999995  1.6420000000000001
  516     1 48.791  24.980999999999995  2.694
  517     2 50.306  14.185999999999998  2.5490000000000004
  518     1 49.378  14.338999999999999  2.6160000000000005
  519     1 50.743  15.027999999999997  2.3370000000000006
  520     2 46.41  22.386999999999997  2.4620000000000006
  521     1 46.725  21.476999999999997  2.4400000000000004
  522     1 47.184  22.922999999999995  2.652
  523     2 47.529  19.737999999999996  2.5050000000000003
  524     1 47.752  19.469999999999995  1.588
  525     1 48.48199999999999  19.882999999999996  2.799
  526     2 52.479000000000006  21.559999999999995  2.5050000000000003
  527     1 52.244  22.483999999999998  2.613
  528     1 52.673  21.521999999999995  1.5760000000000003
  529     2 56.195  25.723999999999993  2.392
  530     1 56.396  24.856999999999992  2.803
  531     1 56.977  26.293999999999997  2.504
  532     2 51.78099999999999  24.065999999999992  2.4680000000000004
  533     1 51.035  24.234999999999996  3.0420000000000003
  534     1 52.36  24.829999999999995  2.5340000000000003
  535     2 56.903999999999996  22.998999999999995  2.519
  536     1 57.88399999999999  22.843999999999998  2.4840000000000004
  537     1 56.681000000000004  23.123999999999995  1.608