LAMMPS data file generated get_lammps_data.py [VK]

432 atoms
2 atom types

0.0 40.98814375468272 xlo xhi
0.0 28.066848880561484 ylo yhi
0.0 15.0 zlo zhi
0.0 0.0 0.0 xy xz yz

Masses

1 1.008
2 15.999

Atoms

    1     2 1.01461201  0.6046405699999999  2.50091
    2     1 0.3126271  0.42842523  3.12785615
    3     1 1.51121281  13.799821589999999  2.43213076
    4     2 2.40113844  2.9436105799999996  2.49912778
    5     1 3.10308716  2.76732552  1.87216011
    6     1 1.90435837  2.10547265  2.567817
    7     2 1.01461197  5.2824487499999995  2.50091001
    8     1 0.31262711  5.10623338  3.1278561399999996
    9     1 1.51121286  4.44420518  2.43213075
   10     2 2.40113856  7.621418759999999  2.49912771
   11     1 3.10308707  7.44513369  1.87216017
   12     1 1.9043583399999997  6.78328074  2.56781701
   13     2 1.01461214  9.96025689  2.50090991
   14     1 0.31262698  9.78404151  3.12785624
   15     1 1.51121284  9.12201337  2.43213076
   16     2 2.40113737  12.299226629999998  2.49912835
   17     1 3.10308792  12.122941669999998  1.87215959
   18     1 1.90435866  11.4610893  2.56781697
   19     2 4.43029107  0.60464049  2.50090977
   20     1 3.72830543  0.42842516999999997  3.12785637
   21     1 4.92689142  13.799821589999999  2.43213076
   22     2 5.81681707  2.94361054  2.49912777
   23     1 6.518765799999999  2.76732553  1.87216012
   24     1 5.32003703  2.10547267  2.567817
   25     2 4.43029037  5.2824488  2.50091014
   26     1 3.72830593  5.106233419999999  3.12785603
   27     1 4.92689159  4.4442051099999995  2.43213075
   28     2 5.81681626  7.62141853  2.49912821
   29     1 6.51876638  7.44513355  1.87215972
   30     1 5.320037259999999  6.783281079999999  2.56781697
   31     2 4.4302897  9.96025703  2.5009105
   32     1 3.72830642  9.784041659999998  3.1278557
   33     1 4.92689176  9.122013059999999  2.43213072
   34     2 5.81681694  12.29922687  2.49912785
   35     1 6.518765899999999  12.12294179  1.87216005
   36     1 5.320037069999999  11.461088979999998  2.56781699
   37     2 7.845969199999999  0.6046405599999999  2.50091005
   38     1 7.14398446  0.4284252499999999  3.12785611
   39     1 8.34257005  13.799821589999999  2.43213077
   40     2 9.232496329999998  2.94361071  2.49912745
   41     1 9.93444402  2.7673256099999994  1.87216041
   42     1 8.73571551  2.1054724499999997  2.56781702
   43     2 7.8459701399999995  5.282448539999999  2.50090954
   44     1 7.143983789999999  5.106233259999999  3.12785657
   45     1 8.3425699  4.444205479999999  2.43213079
   46     2 9.23249681  7.62141891  2.4991272
   47     1 9.93444368  7.445133829999999  1.87216064
   48     1 8.73571538  6.78328047  2.56781704
   49     2 7.8459701399999995  9.96025671  2.50090954
   50     1 7.143983789999999  9.7840414  3.12785657
   51     1 8.3425699  9.12201363  2.43213079
   52     2 9.2324967  12.29922706  2.49912725
   53     1 9.93444376  12.12294196  1.87216059
   54     1 8.7357154  11.46108863  2.56781704
   55     2 11.26164771  0.6046406599999999  2.50091011
   56     1 10.55966319  0.4284252599999999  3.12785605
   57     1 11.758248729999998  13.79982158  2.43213076
   58     2 12.648174909999998  2.9436106999999994  2.49912749
   59     1 13.35012271  2.7673256  1.87216037
   60     1 12.151394179999999  2.10547246  2.56781702
   61     2 11.26164772  5.2824488  2.50091011
   62     1 10.55966318  5.106233409999999  3.1278560599999996
   63     1 11.75824886  4.4442051  2.43213075
   64     2 12.648173769999998  7.62141863  2.49912811
   65     1 13.35012354  7.445133579999999  1.8721598
   66     1 12.151394459999999  6.78328098  2.56781698
   67     2 11.26164867  9.960256719999999  2.5009096
   68     1 10.5596625  9.784041429999998  3.12785653
   69     1 11.758248609999999  9.122013589999998  2.43213078
   70     2 12.64817452  12.29922688  2.4991277
   71     1 13.350122989999997  12.12294184  1.87216018
   72     1 12.15139428  11.46108891  2.56781701
   73     2 1.01461211  14.63806489  2.50090995
   74     1 0.31262704  14.46184967  3.1278562
   75     1 1.51121285  27.833245939999998  2.43213076
   76     2 2.40113929  16.977035129999997  2.49912732
   77     1 3.10308654  16.80075009  1.87216054
   78     1 1.9043581699999999  16.13889686  2.56781702
   79     2 1.01461227  19.31587306  2.50090987
   80     1 0.31262693999999996  19.13965778  3.12785626
   81     1 1.51121273  18.47762976  2.43213077
   82     2 2.40114073  21.65484361  2.49912655
   83     1 3.1030855199999996  21.478558429999996  1.8721612299999997
   84     1 1.90435777  20.8167045  2.56781707
   85     2 1.0146125  23.993681279999997  2.50090973
   86     1 0.31262673999999996  23.81746588  3.12785639
   87     1 1.5112126999999997  23.155437909999996  2.43213078
   88     2 2.40113857  26.33265132  2.49912771
   89     1 3.10308706  26.15636628  1.87216017
   90     1 1.9043583299999998  25.494513339999997  2.56781701
   91     2 4.43029095  14.63806495  2.50090984
   92     1 3.7283055299999996  14.46184963  3.1278562999999995
   93     1 4.92689139  27.833246079999995  2.43213077
   94     2 5.816817989999999  16.97703525  2.49912729
   95     1 6.51876517  16.80075009  1.8721605499999998
   96     1 5.32003676  16.13889677  2.56781703
   97     2 4.43029223  19.31587292  2.50090914
   98     1 3.7283045899999996  19.13965759  3.12785694
   99     1 4.9268911  18.47763011  2.43213081
  100     2 5.8168167099999994  21.65484307  2.49912798
  101     1 6.518766079999999  21.47855806  1.87215992
  102     1 5.3200371  20.81670536  2.567817
  103     2 4.43029101  23.99368121  2.5009098
  104     1 3.72830548  23.81746592  3.12785634
  105     1 4.926891399999999  23.15543792  2.43213077
  106     2 5.816817169999999  26.332651299999995  2.49912773
  107     1 6.51876574  26.15636628  1.87216015
  108     1 5.320036999999999  25.494513369999996  2.567817
  109     2 7.845969659999999  14.638065  2.50090979
  110     1 7.143984109999999  14.46184961  3.12785635
  111     1 8.34257017  27.83324592  2.43213075
  112     2 9.23249556  16.97703498  2.49912786
  113     1 9.93444457  16.80074995  1.87216003
  114     1 8.73571571  16.13889714  2.567817
  115     2 7.845969139999999  19.31587323  2.50091006
  116     1 7.143984479999999  19.13965784  3.12785611
  117     1 8.34257022  18.47762958  2.43213075
  118     2 9.23249399  21.654842809999998  2.49912871
  119     1 9.93444569  21.478557869999996  1.87215927
  120     1 8.73571613  20.81670581  2.56781694
  121     2 7.84596893  23.993681359999997  2.50091019
  122     1 7.14398464  23.81746602  3.12785599
  123     1 8.34257027  23.15543768  2.43213073
  124     2 9.23249508  26.332651169999995  2.49912812
  125     1 9.93444491  26.15636617  1.87215981
  126     1 8.73571586  25.4945136  2.56781698
  127     2 11.26164823  14.63806498  2.50090983
  128     1 10.559662819999998  14.461849639999999  3.12785631
  129     1 11.75824884  27.833245839999996  2.43213075
  130     2 12.64817321  16.97703473  2.4991284
  131     1 13.35012392  16.80074981  1.87215955
  132     1 12.15139464  16.1388975  2.56781696
  133     2 11.261647329999999  19.315873179999997  2.50091033
  134     1 10.55966349  19.13965792  3.12785585
  135     1 11.75824893  18.4776295  2.43213074
  136     2 12.64817544  21.65484331  2.49912719
  137     1 13.35012231  21.478558259999996  1.87216065
  138     1 12.151394089999998  20.81670494  2.56781703
  139     2 11.26164681  23.993681489999997  2.50091061
  140     1 10.55966386  23.81746612  3.12785559
  141     1 11.75824905  23.155437449999997  2.43213073
  142     2 12.648176139999999  26.332651659999996  2.49912682
  143     1 13.35012182  26.156366499999997  1.87216098
  144     1 12.151393879999999  25.494512809999996  2.56781705
  145     2 14.67732796  0.60464034  2.5009092499999994
  146     1 13.97534069  0.4284250399999999  3.12785684
  147     1 15.173927599999999  13.799821339999998  2.43213073
  148     2 16.06385213  2.94361034  2.49912825
  149     1 16.76580237  2.76732541  1.87215968
  150     1 15.5670732  2.10547297  2.56781698
  151     2 14.67732582  5.28244888  2.50091041
  152     1 13.97534223  5.106233489999999  3.12785579
  153     1 15.17392766  4.4442049599999995  2.43213073
  154     2 16.06385193  7.62141854  2.49912837
  155     1 16.76580253  7.445133509999999  1.8721595799999997
  156     1 15.567073249999998  6.783281129999999  2.56781696
  157     2 14.677326699999998  9.960256879999998  2.50090992
  158     1 13.97534158  9.78404151  3.12785623
  159     1 15.17392745  9.12201337  2.43213075
  160     2 16.06385158  12.299226559999997  2.49912856
  161     1 16.76580277  12.12294161  1.87215941
  162     1 15.56707335  11.46108942  2.56781695
  163     2 18.0930042  0.60464073  2.50091055
  164     1 17.391021059999996  0.42842538999999996  3.12785566
  165     1 18.58960596  13.79982165  2.43213077
  166     2 19.47953149  2.9436105499999994  2.49912787
  167     1 20.18148051  2.7673254999999997  1.87216003
  168     1 18.98275168  2.10547271  2.56781699
  169     2 18.09300543  5.28244867  2.50090989
  170     1 17.391020189999995  5.106233349999999  3.12785625
  171     1 18.58960603  4.444205269999999  2.43213076
  172     2 19.47953169  7.621418679999999  2.49912776
  173     1 20.18148036  7.44513368  1.87216014
  174     1 18.982751619999995  6.78328082  2.567817
  175     2 18.09300459  9.96025699  2.50091034
  176     1 17.39102079  9.78404162  3.12785584
  177     1 18.58960625  9.122013149999999  2.43213074
  178     2 19.4795314  12.29922685  2.49912792
  179     1 20.18148058  12.12294177  1.87215999
  180     1 18.98275168  11.46108902  2.56781699
  181     2 21.50868438  0.60464049  2.50090973
  182     1 20.806698619999995  0.42842515999999997  3.12785639
  183     1 22.005284549999995  13.799821659999997  2.43213078
  184     2 22.895210489999997  2.9436105899999996  2.49912769
  185     1 23.597158909999997  2.7673255399999994  1.87216019
  186     1 22.398430209999997  2.1054726  2.56781701
  187     2 21.50868349  5.2824487499999995  2.5009102199999997
  188     1 20.806699269999996  5.10623344  3.12785595
  189     1 22.005284799999995  4.4442051  2.43213074
  190     2 22.895211769999996  7.621419009999999  2.499127
  191     1 23.59715799  7.445133879999999  1.87216082
  192     1 22.39842988  6.783280329999999  2.56781705
  193     2 21.50868479  9.96025666  2.50090951
  194     1 20.80669834  9.78404139  3.12785659
  195     1 22.005284449999998  9.12201365  2.43213079
  196     2 22.89521243  12.29922725  2.49912664
  197     1 23.59715752  12.12294212  1.8721611499999997
  198     1 22.3984297  11.46108828  2.56781707
  199     2 24.9243639  0.60464035  2.5009092499999994
  200     1 24.22237662  0.4284250399999999  3.12785685
  201     1 25.420963459999996  13.799821449999998  2.43213075
  202     2 26.31088775  2.94361034  2.49912844
  203     1 27.01283858  2.7673253599999996  1.87215951
  204     1 25.81410918  2.10547304  2.56781697
  205     2 24.92436334  5.28244857  2.50090956
  206     1 24.22237703  5.106233269999999  3.12785656
  207     1 25.420963179999998  4.44420546  2.43213077
  208     2 26.310888739999996  7.621418649999999  2.49912789
  209     1 27.012837849999997  7.44513365  1.87216
  210     1 25.81410895  6.78328088  2.567817
  211     2 24.92436257  9.96025687  2.50090997
  212     1 24.22237757  9.78404153  3.12785619
  213     1 25.42096338  9.122013359999999  2.43213075
  214     2 26.31088822  12.29922671  2.49912816
  215     1 27.012838199999997  12.12294172  1.87215976
  216     1 25.81410911  11.461089189999997  2.56781698
  217     2 14.677325969999998  14.638065069999998  2.50091034
  218     1 13.97534214  14.46184977  3.12785585
  219     1 15.173927089999998  27.833246369999998  2.4321307999999995
  220     2 16.063853579999996  16.97703514  2.49912748
  221     1 16.76580135  16.80075004  1.87216038
  222     1 15.567072819999998  16.13889691  2.56781702
  223     2 14.67732733  19.315873009999997  2.5009096
  224     1 13.97534115  19.13965771  3.12785651
  225     1 15.17392723  18.477629879999995  2.43213078
  226     2 16.06385459  21.654843519999996  2.49912693
  227     1 16.76580064  21.478558329999995  1.8721608699999999
  228     1 15.56707251  20.816704699999995  2.56781706
  229     2 14.67732868  23.99368095  2.50090886
  230     1 13.975340169999999  23.81746566  3.1278571899999994
  231     1 15.173926879999998  23.15543843  2.43213082
  232     2 16.06385353  26.332651399999996  2.4991275
  233     1 16.76580139  26.15636634  1.87216035
  234     1 15.56707279  25.494513219999998  2.56781703
  235     2 18.0930058  14.63806495  2.50090968
  236     1 17.3910199  14.46184959  3.12785644
  237     1 18.58960638  27.83324562  2.43213072
  238     2 19.47953121  16.977034949999997  2.49912802
  239     1 20.18148072  16.80074989  1.87215989
  240     1 18.98275171  16.13889722  2.56781699
  241     2 18.09300563  19.31587313  2.50090976
  242     1 17.39102001  19.139657759999995  3.12785637
  243     1 18.58960602  18.477629739999998  2.43213076
  244     2 19.47953079  21.65484293  2.49912824
  245     1 20.18148099  21.47855799  1.87215969
  246     1 18.98275187  20.816705549999995  2.56781697
  247     2 18.0930035  23.993681639999995  2.50091091
  248     1 17.39102155  23.81746622  3.12785533
  249     1 18.58960657  23.155437239999998  2.4321307
  250     2 19.4795302  26.33265103  2.49912856
  251     1 20.18148142  26.156366039999998  1.87215941
  252     1 18.98275204  25.494513859999998  2.56781695
  253     2 21.508684389999996  14.638064919999998  2.50090972
  254     1 20.806698619999995  14.46184959  3.1278564
  255     1 22.005284589999995  27.8332461  2.43213077
  256     2 22.895212049999998  16.977035339999997  2.49912684
  257     1 23.597157789999997  16.800750219999998  1.87216096
  258     1 22.398429789999998  16.13889654  2.56781706
  259     2 21.50868436  19.31587314  2.50090973
  260     1 20.80669863  19.139657749999998  3.1278564
  261     1 22.00528461  18.47762976  2.43213077
  262     2 22.895209119999997  21.654842989999995  2.49912844
  263     1 23.597159929999997  21.478557939999998  1.8721594999999998
  264     1 22.39843052  20.81670559  2.56781697
  265     2 21.50868609  23.993680859999998  2.50090881
  266     1 20.80669739  23.817465649999995  3.12785724
  267     1 22.00528416  23.155438509999996  2.43213082
  268     2 22.89521083  26.33265136  2.49912751
  269     1 23.59715867  26.15636634  1.87216035
  270     1 22.3984301  25.49451325  2.56781702
  271     2 24.92436244  14.638065079999999  2.50091002
  272     1 24.22237764  14.461849689999998  3.1278561399999996
  273     1 25.42096305  27.83324635  2.43213079
  274     2 26.310886549999996  16.97703455  2.49912907
  275     1 27.01283941  16.80074962  1.8721589399999998
  276     1 25.814109539999997  16.138897859999997  2.56781693
  277     2 24.92436227  19.31587313  2.50091013
  278     1 24.2223778  19.139657859999996  3.12785604
  279     1 25.420963459999996  18.477629599999997  2.43213074
  280     2 26.31088954  21.65484324  2.49912746
  281     1 27.01283726  21.478558189999998  1.87216041
  282     1 25.81410878  20.81670508  2.56781702
  283     2 24.92436163  23.993681529999996  2.50091048
  284     1 24.22237826  23.81746609  3.12785572
  285     1 25.42096361  23.15543747  2.43213072
  286     2 26.31088868  26.332651309999996  2.49912794
  287     1 27.01283791  26.156366219999995  1.87215995
  288     1 25.81410895  25.494513439999995  2.56781699
  289     2 28.340038899999996  0.60464097  2.5009112
  290     1 27.63805788  0.42842556  3.12785506
  291     1 28.83664176  13.799821799999998  2.43213079
  292     2 29.726566509999998  2.94361032  2.49912834
  293     1 30.42851706  2.7673253599999996  1.8721596199999997
  294     1 29.22978793  2.10547304  2.56781695
  295     2 28.34003833  5.282449259999999  2.50091151
  296     1 27.63805829  5.106233779999999  3.12785478
  297     1 28.836642799999996  4.44420429  2.43213066
  298     2 29.72656715  7.621418689999999  2.49912802
  299     1 30.428516649999995  7.445133579999999  1.87215991
  300     1 29.22978772  6.783280909999999  2.56781698
  301     2 28.34003993  9.96025708  2.50091067
  302     1 27.63805716  9.7840417  3.12785555
  303     1 28.836642349999998  9.12201295  2.43213071
  304     2 29.726568739999998  12.29922711  2.49912717
  305     1 30.42851552  12.12294198  1.87216066
  306     1 29.22978726  11.46108857  2.56781703
  307     2 31.75572318  0.6046399  2.5009082
  308     1 31.05373254  0.42842474  3.12785777
  309     1 32.25232084  13.7998213  2.43213073
  310     2 33.14224988  2.94361129  2.49912583
  311     1 33.8441924  2.7673260499999994  1.87216187
  312     1 32.64546516  2.1054714799999994  2.56781713
  313     2 31.755723439999997  5.28244806  2.50090804
  314     1 31.05373233  5.106232839999999  3.12785792
  315     1 32.25231966  4.444206349999999  2.43213089
  316     2 33.14224825  7.621419  2.49912669
  317     1 33.84419354  7.44513397  1.87216109
  318     1 32.64546565  6.783280199999999  2.56781708
  319     2 31.755719119999995  9.96025708  2.50091037
  320     1 31.0537354  9.78404162  3.1278558199999997
  321     1 32.25232084  9.12201309  2.43213074
  322     2 33.14224503  12.299226629999998  2.49912844
  323     1 33.84419586  12.122941639999999  1.87215951
  324     1 32.64546652  11.461089329999998  2.56781696
  325     2 35.17139859  0.6046406  2.5009099
  326     1 34.46941342  0.42842521999999994  3.12785626
  327     1 35.66799964  13.79982107  2.43213071
  328     2 36.5579236  2.94361031  2.49912847
  329     1 37.25987454999999  2.76732535  1.87215947
  330     1 36.06114519  2.10547307  2.56781696
  331     2 35.17139848  5.282448689999999  2.50090997
  332     1 34.46941352  5.1062334  3.1278562
  333     1 35.66799935  4.44420522  2.43213075
  334     2 36.55792355  7.621418389999999  2.49912849
  335     1 37.25987456  7.44513349  1.87215947
  336     1 36.06114523  6.783281279999999  2.56781696
  337     2 35.17139795  9.960256879999998  2.50091027
  338     1 34.46941393  9.784041609999997  3.1278558999999997
  339     1 35.66799945  9.122013239999998  2.43213074
  340     2 36.55792526  12.29922692  2.49912757
  341     1 37.25987335  12.12294186  1.87216031
  342     1 36.06114477999999  11.46108885  2.56781701
  343     2 38.58707564  0.60464087  2.50091078
  344     1 37.88509326  0.42842543999999994  3.12785545
  345     1 39.08367803  13.79982139  2.43213075
  346     2 39.97360258  2.94361039  2.49912831
  347     1 40.67555295999999  2.76732538  1.87215964
  348     1 39.47682376  2.10547296  2.56781696
  349     2 38.58707663  5.28244878  2.50091026
  350     1 37.88509256  5.10623345  3.12785592
  351     1 39.08367809  4.444205059999999  2.43213074
  352     2 39.9736039  7.62141883  2.4991276
  353     1 40.67555202999999  7.44513372  1.87216028
  354     1 39.47682338  6.78328067  2.56781701
  355     2 38.58707868  9.96025654  2.50090915
  356     1 37.88509109  9.7840413  3.12785692
  357     1 39.08367753  9.12201386  2.43213081
  358     2 39.97360516999999  12.29922713  2.49912689
  359     1 40.67555109  12.122942059999998  1.87216092
  360     1 39.47682306  11.461088449999998  2.56781706
  361     2 28.34004209  14.638064819999999  2.50090949
  362     1 27.63805562  14.461849539999998  3.12785661
  363     1 28.836642659999995  27.83324523  2.43213068
  364     2 29.726568069999995  16.97703501  2.49912752
  365     1 30.428515979999997  16.80075004  1.87216035
  366     1 29.229787439999996  16.138897  2.56781701
  367     2 28.34004015  19.315873329999995  2.50091055
  368     1 27.638057009999997  19.139657959999997  3.12785565
  369     1 28.836642259999998  18.47762934  2.43213072
  370     2 29.7265686  21.65484328  2.49912722
  371     1 30.428515579999996  21.478558259999996  1.8721606299999998
  372     1 29.229787349999995  20.816704949999995  2.56781703
  373     2 28.34003898  23.993681779999996  2.50091116
  374     1 27.638057819999997  23.817466279999998  3.1278550999999997
  375     1 28.83664262  23.155437069999998  2.43213069
  376     2 29.726565559999997  26.332650879999996  2.49912887
  377     1 30.42851776  26.15636596  1.87215914
  378     1 29.22978815  25.49451406  2.56781692
  379     2 31.755719069999998  14.638065069999998  2.50091041
  380     1 31.053735459999995  14.46184979  3.12785578
  381     1 32.252319709999995  27.83324702  2.43213088
  382     2 33.14224776  16.977035299999997  2.49912697
  383     1 33.84419389  16.80075018  1.87216085
  384     1 32.64546582  16.138896629999998  2.56781705
  385     2 31.75572052  19.31587303  2.50090962
  386     1 31.053734409999997  19.139657719999995  3.12785649
  387     1 32.25232046  18.477629869999998  2.43213078
  388     2 33.14224719  21.654843369999995  2.49912728
  389     1 33.84419430999999  21.47855824  1.8721605499999998
  390     1 32.64546592  20.816704919999996  2.56781704
  391     2 31.755721609999995  23.99368088  2.50090904
  392     1 31.05373366  23.817465719999998  3.12785701
  393     1 32.25232014  23.155438409999995  2.43213082
  394     2 33.14224902  26.332651869999996  2.4991262999999995
  395     1 33.84419300999999  26.15636666  1.87216145
  396     1 32.64546541  25.494512499999995  2.5678171
  397     2 35.17139723  14.638065299999997  2.50091067
  398     1 34.469414439999994  14.46184984  3.12785555
  399     1 35.66799932  27.833245939999998  2.43213075
  400     2 36.55792524  16.97703519  2.49912761
  401     1 37.25987341  16.800750009999998  1.87216025
  402     1 36.06114472  16.13889691  2.56781701
  403     2 35.17140012  19.31587291  2.5009090899999995
  404     1 34.46941235  19.139657579999998  3.12785699
  405     1 35.66799892  18.47763013  2.4321307999999995
  406     2 36.55792362  21.654842879999997  2.49912848
  407     1 37.25987456  21.478557939999998  1.87215947
  408     1 36.061145149999994  20.81670566  2.56781697
  409     2 35.17139852  23.993681279999997  2.50090996
  410     1 34.4694135  23.817465959999996  3.1278562
  411     1 35.66799931  23.15543782  2.43213075
  412     2 36.55792504  26.332651339999998  2.49912769
  413     1 37.25987352  26.15636628  1.87216019
  414     1 36.06114481  25.494513329999997  2.56781701
  415     2 38.58707691  14.63806516  2.50091009
  416     1 37.88509232  14.461849689999998  3.12785608
  417     1 39.08367835999999  27.833245459999997  2.43213071
  418     2 39.97360119999999  16.977034499999995  2.4991290399999997
  419     1 40.67555393  16.800749629999995  1.87215898
  420     1 39.47682413  16.138897859999997  2.56781692
  421     2 38.58707472  19.31587361  2.50091128
  422     1 37.88509391  19.139658169999997  3.127855
  423     1 39.08367863  18.47762889  2.43213067
  424     2 39.97360147  21.65484276  2.49912889
  425     1 40.67555374  21.47855781  1.87215912
  426     1 39.47682408  20.81670591  2.56781692
  427     2 38.58707554  23.99368159  2.50091084
  428     1 37.88509332  23.81746619  3.1278554
  429     1 39.0836784  23.1554373  2.4321307
  430     2 39.97360337  26.33265126  2.49912786
  431     1 40.67555237  26.156366229999996  1.87216004
  432     1 39.476823579999994  25.494513439999995  2.56781699

