432
Lattice="40.98814375468272 0.0 0.0 0.0 28.066848880561484 0.0 0.0 0.0 15.0" Properties=species:S:1:pos:R:3:forces:R:3 energy=-67506.8681651475 stress="-0.0010002171207360692 7.537974092450851e-07 1.628456686912638e-07 7.537974092450851e-07 -0.0009999553254095336 -7.649144236194006e-08 1.628456686912638e-07 -7.649144236194006e-08 7.11833540710923e-08" pbc="T T T"
O        1.01461201       0.60464057       2.50091000      -0.00017520       0.00007425      -0.00011074
H        0.31262710       0.42842523       3.12785615      -0.00012512       0.00002982      -0.00005931
H        1.51121281      13.79982159       2.43213076       0.00031313       0.00034592       0.00010356
O        2.40113844       2.94361058       2.49912778      -0.00021713      -0.00003306      -0.00013110
H        3.10308716       2.76732552       1.87216011      -0.00006535      -0.00007442      -0.00002751
H        1.90435837       2.10547265       2.56781700       0.00027355      -0.00035477       0.00007312
O        1.01461197       5.28244875       2.50091001      -0.00017161       0.00006985      -0.00011268
H        0.31262711       5.10623338       3.12785614      -0.00012663       0.00002999      -0.00005798
H        1.51121286       4.44420518       2.43213075       0.00030714       0.00036171       0.00010458
O        2.40113856       7.62141876       2.49912771      -0.00022950      -0.00003834      -0.00012166
H        3.10308707       7.44513369       1.87216017      -0.00005658      -0.00007693      -0.00003541
H        1.90435834       6.78328074       2.56781701       0.00027731      -0.00034744       0.00007220
O        1.01461214       9.96025689       2.50090991      -0.00018854       0.00007161      -0.00009905
H        0.31262698       9.78404151       3.12785624      -0.00011290       0.00003210      -0.00007141
H        1.51121284       9.12201337       2.43213076       0.00030946       0.00035642       0.00010411
O        2.40113737      12.29922663       2.49912835      -0.00010342      -0.00000150      -0.00021014
H        3.10308792      12.12294167       1.87215959      -0.00014585      -0.00005511       0.00004482
H        1.90435866      11.46108930       2.56781697       0.00024271      -0.00040236       0.00007749
O        4.43029107       0.60464049       2.50090977      -0.00021966       0.00008580      -0.00007837
H        3.72830543       0.42842517       3.12785637      -0.00009233       0.00003750      -0.00008912
H        4.92689142      13.79982159       2.43213076       0.00031631       0.00034656       0.00010299
O        5.81681707       2.94361054       2.49912777      -0.00021517      -0.00002781      -0.00013050
H        6.51876580       2.76732553       1.87216012      -0.00006502      -0.00007506      -0.00002799
H        5.32003703       2.10547267       2.56781700       0.00027181      -0.00035820       0.00007297
O        4.43029037       5.28244880       2.50091014      -0.00014484       0.00006409      -0.00013019
H        3.72830593       5.10623342       3.12785603      -0.00014493       0.00002453      -0.00004224
H        4.92689159       4.44420511       2.43213075       0.00029904       0.00037118       0.00010542
O        5.81681626       7.62141853       2.49912821      -0.00012892      -0.00000773      -0.00019133
H        6.51876638       7.44513355       1.87215972      -0.00012634      -0.00005880       0.00002661
H        5.32003726       6.78328108       2.56781697       0.00024763      -0.00039215       0.00007695
O        4.43028970       9.96025703       2.50091050      -0.00007339       0.00005256      -0.00018118
H        3.72830642       9.78404166       3.12785570      -0.00019737       0.00001113       0.00000400
H        4.92689176       9.12201306       2.43213072       0.00028080       0.00039734       0.00010857
O        5.81681694      12.29922687       2.49912785      -0.00020137      -0.00003273      -0.00014135
H        6.51876590      12.12294179       1.87216005      -0.00007589      -0.00007098      -0.00001859
H        5.32003707      11.46108898       2.56781699       0.00026793      -0.00036012       0.00007421
O        7.84596920       0.60464056       2.50091005      -0.00016378       0.00007552      -0.00011782
H        7.14398446       0.42842525       3.12785611      -0.00013276       0.00002719      -0.00005345
H        8.34257005      13.79982159       2.43213077       0.00031785       0.00034679       0.00010223
O        9.23249633       2.94361071       2.49912745      -0.00027991      -0.00005000      -0.00008587
H        9.93444402       2.76732561       1.87216041      -0.00002010      -0.00008577      -0.00006816
H        8.73571551       2.10547245       2.56781702       0.00028983      -0.00032913       0.00007022
O        7.84597014       5.28244854       2.50090954      -0.00026436       0.00009878      -0.00004709
H        7.14398379       5.10623326       3.12785657      -0.00006153       0.00004574      -0.00011696
H        8.34256990       4.44420548       2.43213079       0.00033390       0.00032115       0.00009992
O        9.23249681       7.62141891       2.49912720      -0.00033090      -0.00005760      -0.00005031
H        9.93444368       7.44513383       1.87216064       0.00001681      -0.00009591      -0.00010011
H        8.73571538       6.78328047       2.56781704       0.00030418      -0.00031111       0.00006794
O        7.84597014       9.96025671       2.50090954      -0.00026415       0.00009568      -0.00004703
H        7.14398379       9.78404140       3.12785657      -0.00006128       0.00004652      -0.00011654
H        8.34256990       9.12201363       2.43213079       0.00033430       0.00032177       0.00009967
O        9.23249670      12.29922706       2.49912725      -0.00031922      -0.00005759      -0.00005783
H        9.93444376      12.12294196       1.87216059       0.00000843      -0.00009308      -0.00009337
H        8.73571540      11.46108863       2.56781704       0.00030122      -0.00031347       0.00006813
O       11.26164771       0.60464066       2.50091011      -0.00014941       0.00006249      -0.00012620
H       10.55966319       0.42842526       3.12785605      -0.00014199       0.00002653      -0.00004491
H       11.75824873      13.79982158       2.43213076       0.00031463       0.00034717       0.00010307
O       12.64817491       2.94361070       2.49912749      -0.00027313      -0.00004890      -0.00009084
H       13.35012271       2.76732560       1.87216037      -0.00002458      -0.00008420      -0.00006357
H       12.15139418       2.10547246       2.56781702       0.00028767      -0.00032989       0.00007033
O       11.26164772       5.28244880       2.50091011      -0.00015122       0.00006304      -0.00012600
H       10.55966318       5.10623341       3.12785606      -0.00014035       0.00002551      -0.00004660
H       11.75824886       4.44420510       2.43213075       0.00030094       0.00037142       0.00010534
O       12.64817377       7.62141863       2.49912811      -0.00015251      -0.00002035      -0.00017729
H       13.35012354       7.44513358       1.87215980      -0.00011214      -0.00006295       0.00001557
H       12.15139446       6.78328098       2.56781698       0.00025745      -0.00037900       0.00007553
O       11.26164867       9.96025672       2.50090960      -0.00025173       0.00009411      -0.00005506
H       10.55966250       9.78404143       3.12785653      -0.00006844       0.00004310      -0.00011091
H       11.75824861       9.12201359       2.43213078       0.00032731       0.00032661       0.00010124
O       12.64817452      12.29922688       2.49912770      -0.00023085      -0.00003400      -0.00011971
H       13.35012299      12.12294184       1.87216018      -0.00005441      -0.00007819      -0.00003676
H       12.15139428      11.46108891       2.56781701       0.00027707      -0.00035023       0.00007164
O        1.01461211      14.63806489       2.50090995      -0.00018590       0.00009041      -0.00010343
H        0.31262704      14.46184967       3.12785620      -0.00011888       0.00002966      -0.00006613
H        1.51121285      27.83324594       2.43213076       0.00030904       0.00035766       0.00010396
O        2.40113929      16.97703513       2.49912732      -0.00030707      -0.00004862      -0.00006675
H        3.10308654      16.80075009       1.87216054       0.00000077      -0.00009116      -0.00008658
H        1.90435817      16.13889686       2.56781702       0.00029484      -0.00032429       0.00006984
O        1.01461227      19.31587306       2.50090987      -0.00020273       0.00008755      -0.00009262
H        0.31262694      19.13965778       3.12785626      -0.00010804       0.00003524      -0.00007397
H        1.51121273      18.47762976       2.43213077       0.00032095       0.00034306       0.00010193
O        2.40114073      21.65484361       2.49912655      -0.00045956      -0.00009210       0.00004036
H        3.10308552      21.47855843       1.87216123       0.00010911      -0.00011801      -0.00018322
H        1.90435777      20.81670450       2.56781707       0.00033743      -0.00025695       0.00006288
O        1.01461250      23.99368128       2.50090973      -0.00022784       0.00007811      -0.00007279
H        0.31262674      23.81746588       3.12785639      -0.00008708       0.00004095      -0.00009293
H        1.51121270      23.15543791       2.43213078       0.00032430       0.00034179       0.00010100
O        2.40113857      26.33265132       2.49912771      -0.00023186      -0.00003483      -0.00012074
H        3.10308706      26.15636628       1.87216017      -0.00005457      -0.00007746      -0.00003663
H        1.90435833      25.49451334       2.56781701       0.00027831      -0.00034872       0.00007219
O        4.43029095      14.63806495       2.50090984      -0.00020586       0.00008210      -0.00008816
H        3.72830553      14.46184963       3.12785630      -0.00010228       0.00003530      -0.00008001
H        4.92689139      27.83324608       2.43213077       0.00032035       0.00033943       0.00010228
O        5.81681799      16.97703525       2.49912729      -0.00031237      -0.00006339      -0.00006326
H        6.51876517      16.80075009       1.87216055       0.00000228      -0.00009130      -0.00008780
H        5.32003676      16.13889677       2.56781703       0.00030090      -0.00031243       0.00006824
O        4.43029223      19.31587292       2.50090914      -0.00034173       0.00010644       0.00000918
H        3.72830459      19.13965759       3.12785694      -0.00000246       0.00006024      -0.00016890
H        4.92689110      18.47763011       2.43213081       0.00035018       0.00029620       0.00009705
O        5.81681671      21.65484307       2.49912798      -0.00017759      -0.00002101      -0.00015846
H        6.51876608      21.47855806       1.87215992      -0.00009380      -0.00006822      -0.00000094
H        5.32003710      20.81670536       2.56781700       0.00026516      -0.00037078       0.00007330
O        4.43029101      23.99368121       2.50090980      -0.00021332       0.00008728      -0.00008321
H        3.72830548      23.81746592       3.12785634      -0.00009688       0.00003570      -0.00008516
H        4.92689140      23.15543792       2.43213077       0.00031874       0.00034047       0.00010264
O        5.81681717      26.33265130       2.49912773      -0.00022532      -0.00003193      -0.00012418
H        6.51876574      26.15636628       1.87216015      -0.00005870      -0.00007722      -0.00003313
H        5.32003700      25.49451337       2.56781700       0.00027532      -0.00035372       0.00007237
O        7.84596966      14.63806500       2.50090979      -0.00021316       0.00007628      -0.00008123
H        7.14398411      14.46184961       3.12785635      -0.00009553       0.00003801      -0.00008659
H        8.34257017      27.83324592       2.43213075       0.00030532       0.00036103       0.00010492
O        9.23249556      16.97703498       2.49912786      -0.00019797      -0.00002737      -0.00014283
H        9.93444457      16.80074995       1.87216003      -0.00007795      -0.00007206      -0.00001604
H        8.73571571      16.13889714       2.56781700       0.00026844      -0.00036159       0.00007323
O        7.84596914      19.31587323       2.50091006      -0.00015723       0.00006457      -0.00012017
H        7.14398448      19.13965784       3.12785611      -0.00013524       0.00002648      -0.00005260
H        8.34257022      18.47762958       2.43213075       0.00030044       0.00036775       0.00010528
O        9.23249399      21.65484281       2.49912871      -0.00003179       0.00001416      -0.00026006
H        9.93444569      21.47855787       1.87215927      -0.00019742      -0.00004218       0.00008940
H        8.73571613      20.81670581       2.56781694       0.00022380      -0.00043095       0.00008088
O        7.84596893      23.99368136       2.50091019      -0.00013549       0.00006690      -0.00013775
H        7.14398464      23.81746602       3.12785599      -0.00015217       0.00002181      -0.00003633
H        8.34257027      23.15543768       2.43213073       0.00029523       0.00037295       0.00010707
O        9.23249508      26.33265117       2.49912812      -0.00014664      -0.00001446      -0.00017884
H        9.93444491      26.15636617       1.87215981      -0.00011488      -0.00006215       0.00001556
H        8.73571586      25.49451360       2.56781698       0.00025318      -0.00038445       0.00007617
O       11.26164823      14.63806498       2.50090983      -0.00020445       0.00007869      -0.00008808
H       10.55966282      14.46184964       3.12785631      -0.00010237       0.00003467      -0.00008108
H       11.75824884      27.83324584       2.43213075       0.00030281       0.00037191       0.00010422
O       12.64817321      16.97703473       2.49912840      -0.00009333       0.00000498      -0.00021719
H       13.35012392      16.80074981       1.87215955      -0.00015237      -0.00005343       0.00005047
H       12.15139464      16.13889750       2.56781696       0.00023904      -0.00040930       0.00007838
O       11.26164733      19.31587318       2.50091033      -0.00010963       0.00007087      -0.00015694
H       10.55966349      19.13965792       3.12785585      -0.00017349       0.00001689      -0.00001731
H       11.75824893      18.47762950       2.43213074       0.00029348       0.00037707       0.00010692
O       12.64817544      21.65484331       2.49912719      -0.00032874      -0.00005166      -0.00005015
H       13.35012231      21.47855826       1.87216065       0.00001805      -0.00009458      -0.00010241
H       12.15139409      20.81670494       2.56781703       0.00029738      -0.00031580       0.00006932
O       11.26164681      23.99368149       2.50091061      -0.00005475       0.00004964      -0.00019507
H       10.55966386      23.81746612       3.12785559      -0.00021261       0.00000876       0.00001850
H       11.75824905      23.15543745       2.43213073       0.00028114       0.00040409       0.00010812
O       12.64817614      26.33265166       2.49912682      -0.00040288      -0.00007954       0.00000133
H       13.35012182      26.15636650       1.87216098       0.00006994      -0.00010707      -0.00014832
H       12.15139388      25.49451281       2.56781705       0.00031927      -0.00027909       0.00006576
O       14.67732796       0.60464034       2.50090925      -0.00031946       0.00010545      -0.00000679
H       13.97534069       0.42842504       3.12785684      -0.00001948       0.00005578      -0.00015471
H       15.17392760      13.79982134       2.43213073       0.00029133       0.00037980       0.00010734
O       16.06385213       2.94361034       2.49912825      -0.00012230      -0.00000111      -0.00019643
H       16.76580237       2.76732541       1.87215968      -0.00013204      -0.00005886       0.00003235
H       15.56707320       2.10547297       2.56781698       0.00024803      -0.00039751       0.00007644
O       14.67732582       5.28244888       2.50091041      -0.00009328       0.00005355      -0.00016786
H       13.97534223       5.10623349       3.12785579      -0.00018268       0.00001464      -0.00000872
H       15.17392766       4.44420496       2.43213073       0.00028515       0.00039040       0.00010812
O       16.06385193       7.62141854       2.49912837      -0.00010061      -0.00000843      -0.00021288
H       16.76580253       7.44513351       1.87215958      -0.00014881      -0.00005355       0.00004679
H       15.56707325       6.78328113       2.56781696       0.00024259      -0.00039979       0.00007821
O       14.67732670       9.96025688       2.50090992      -0.00018581       0.00007221      -0.00010113
H       13.97534158       9.78404151       3.12785623      -0.00011499       0.00003160      -0.00006983
H       15.17392745       9.12201337       2.43213075       0.00030692       0.00035654       0.00010472
O       16.06385158      12.29922656       2.49912856      -0.00006374       0.00000841      -0.00023874
H       16.76580277      12.12294161       1.87215941      -0.00017441      -0.00004719       0.00007025
H       15.56707335      11.46108942       2.56781695       0.00023174      -0.00041864       0.00007960
O       18.09300420       0.60464073       2.50091055      -0.00006444       0.00005281      -0.00018730
H       17.39102106       0.42842539       3.12785566      -0.00020358       0.00000855       0.00000892
H       18.58960596      13.79982165       2.43213077       0.00032103       0.00033814       0.00010202
O       19.47953149       2.94361055       2.49912787      -0.00019696      -0.00002876      -0.00014419
H       20.18148051       2.76732550       1.87216003      -0.00007847      -0.00007108      -0.00001602
H       18.98275168       2.10547271       2.56781699       0.00026589      -0.00036364       0.00007438
O       18.09300543       5.28244867       2.50090989      -0.00019479       0.00008017      -0.00009609
H       17.39102019       5.10623335       3.12785625      -0.00011071       0.00003325      -0.00007291
H       18.58960603       4.44420527       2.43213076       0.00031351       0.00034957       0.00010347
O       19.47953169       7.62141868       2.49912776      -0.00021842      -0.00002670      -0.00012816
H       20.18148036       7.44513368       1.87216014      -0.00006235      -0.00007562      -0.00003079
H       18.98275162       6.78328082       2.56781700       0.00027175      -0.00035804       0.00007331
O       18.09300459       9.96025699       2.50091034      -0.00010655       0.00005714      -0.00015820
H       17.39102079       9.78404162       3.12785584      -0.00017420       0.00001758      -0.00001640
H       18.58960625       9.12201315       2.43213074       0.00029046       0.00038550       0.00010685
O       19.47953140      12.29922685       2.49912792      -0.00018760      -0.00002996      -0.00015073
H       20.18148058      12.12294177       1.87215999      -0.00008588      -0.00006888      -0.00001018
H       18.98275168      11.46108902       2.56781699       0.00026572      -0.00036516       0.00007468
O       21.50868438       0.60464049       2.50090973      -0.00022798       0.00008514      -0.00007338
H       20.80669862       0.42842516       3.12785639      -0.00008735       0.00003976      -0.00009299
H       22.00528455      13.79982166       2.43213078       0.00032737       0.00033673       0.00010065
O       22.89521049       2.94361059       2.49912769      -0.00023607      -0.00003457      -0.00011839
H       23.59715891       2.76732554       1.87216019      -0.00005113      -0.00007763      -0.00003865
H       22.39843021       2.10547260       2.56781701       0.00027817      -0.00034820       0.00007204
O       21.50868349       5.28244875       2.50091022      -0.00013377       0.00007022      -0.00014053
H       20.80669927       5.10623344       3.12785595      -0.00015590       0.00002189      -0.00003192
H       22.00528480       4.44420510       2.43213074       0.00030079       0.00037183       0.00010553
O       22.89521177       7.62141901       2.49912700      -0.00037097      -0.00007147      -0.00002231
H       23.59715799       7.44513388       1.87216082       0.00004537      -0.00010234      -0.00012580
H       22.39842988       6.78328033       2.56781705       0.00031337      -0.00029274       0.00006647
O       21.50868479       9.96025666       2.50090951      -0.00027075       0.00010156      -0.00004260
H       20.80669834       9.78404139       3.12785659      -0.00005730       0.00004748      -0.00012023
H       22.00528445       9.12201365       2.43213079       0.00033808       0.00031787       0.00009909
O       22.89521243      12.29922725       2.49912664      -0.00044039      -0.00008367       0.00002744
H       23.59715752      12.12294212       1.87216115       0.00009524      -0.00011544      -0.00017063
H       22.39842970      11.46108828       2.56781707       0.00033231      -0.00026672       0.00006307
O       24.92436390       0.60464035       2.50090925      -0.00032046       0.00010338      -0.00000696
H       24.22237662       0.42842504       3.12785685      -0.00001874       0.00005564      -0.00015535
H       25.42096346      13.79982145       2.43213075       0.00029987       0.00036501       0.00010516
O       26.31088775       2.94361034       2.49912844      -0.00008742      -0.00000151      -0.00022253
H       27.01283858       2.76732536       1.87215951      -0.00016059      -0.00005257       0.00005692
H       25.81410918       2.10547304       2.56781697       0.00024306      -0.00040667       0.00007747
O       24.92436334       5.28244857       2.50090956      -0.00026104       0.00009470      -0.00005016
H       24.22237703       5.10623327       3.12785656      -0.00006198       0.00004503      -0.00011585
H       25.42096318       4.44420546       2.43213077       0.00032927       0.00032389       0.00010197
O       26.31088874       7.62141865       2.49912789      -0.00019188      -0.00002316      -0.00014733
H       27.01283785       7.44513365       1.87216000      -0.00008340      -0.00007124      -0.00001170
H       25.81410895       6.78328088       2.56781700       0.00026711      -0.00036616       0.00007340
O       24.92436257       9.96025687       2.50090997      -0.00017896       0.00007372      -0.00010634
H       24.22237757       9.78404153       3.12785619      -0.00012002       0.00002985      -0.00006476
H       25.42096338       9.12201336       2.43213075       0.00030794       0.00035717       0.00010461
O       26.31088822      12.29922671       2.49912816      -0.00013739      -0.00001124      -0.00018467
H       27.01283820      12.12294172       1.87215976      -0.00012056      -0.00006123       0.00002175
H       25.81410911      11.46108919       2.56781698       0.00025115      -0.00038809       0.00007601
O       14.67732597      14.63806507       2.50091034      -0.00010875       0.00006698      -0.00015790
H       13.97534214      14.46184977       3.12785585      -0.00017342       0.00001647      -0.00001712
H       15.17392709      27.83324637       2.43213080       0.00034528       0.00030121       0.00009806
O       16.06385358      16.97703514       2.49912748      -0.00027542      -0.00004985      -0.00008982
H       16.76580135      16.80075004       1.87216038      -0.00002331      -0.00008460      -0.00006491
H       15.56707282      16.13889691       2.56781702       0.00028796      -0.00033103       0.00007093
O       14.67732733      19.31587301       2.50090960      -0.00025366       0.00009413      -0.00005526
H       13.97534115      19.13965771       3.12785651      -0.00006881       0.00004413      -0.00010923
H       15.17392723      18.47762988       2.43213078       0.00033081       0.00032676       0.00010059
O       16.06385459      21.65484352       2.49912693      -0.00038275      -0.00008088      -0.00001364
H       16.76580064      21.47855833       1.87216087       0.00005189      -0.00010455      -0.00013239
H       15.56707251      20.81670470       2.56781706       0.00032078      -0.00028336       0.00006475
O       14.67732868      23.99368095       2.50090886      -0.00039657       0.00012154       0.00004709
H       13.97534017      23.81746566       3.12785719       0.00003560       0.00007050      -0.00020278
H       15.17392688      23.15543843       2.43213082       0.00036705       0.00027323       0.00009451
O       16.06385353      26.33265140       2.49912750      -0.00027043      -0.00004465      -0.00009233
H       16.76580139      26.15636634       1.87216035      -0.00002792      -0.00008596      -0.00006047
H       15.56707279      25.49451322       2.56781703       0.00029159      -0.00033284       0.00006911
O       18.09300580      14.63806495       2.50090968      -0.00023374       0.00008253      -0.00006744
H       17.39101990      14.46184959       3.12785644      -0.00008083       0.00004115      -0.00009912
H       18.58960638      27.83324562       2.43213072       0.00027727       0.00040046       0.00010935
O       19.47953121      16.97703495       2.49912802      -0.00016843      -0.00002459      -0.00016397
H       20.18148072      16.80074989       1.87215989      -0.00009993      -0.00006527       0.00000280
H       18.98275171      16.13889722       2.56781699       0.00026207      -0.00037216       0.00007451
O       18.09300563      19.31587313       2.50090976      -0.00021520       0.00007842      -0.00007891
H       17.39102001      19.13965776       3.12785637      -0.00009255       0.00003778      -0.00008946
H       18.58960602      18.47762974       2.43213076       0.00031535       0.00034540       0.00010284
O       19.47953079      21.65484293       2.49912824      -0.00012272      -0.00000162      -0.00019518
H       20.18148099      21.47855799       1.87215969      -0.00012932      -0.00005801       0.00003084
H       18.98275187      20.81670555       2.56781697       0.00024492      -0.00039621       0.00007686
O       18.09300350      23.99368164       2.50091091       0.00000974       0.00002970      -0.00023783
H       17.39102155      23.81746622       3.12785533      -0.00025476      -0.00000429       0.00005451
H       18.58960657      23.15543724       2.43213070       0.00025685       0.00043125       0.00011205
O       19.47953020      26.33265103       2.49912856      -0.00006012       0.00000448      -0.00023985
H       20.18148142      26.15636604       1.87215941      -0.00017508      -0.00004569       0.00007042
H       18.98275204      25.49451386       2.56781695       0.00022741      -0.00041821       0.00008027
O       21.50868439      14.63806492       2.50090972      -0.00022887       0.00008732      -0.00007144
H       20.80669862      14.46184959       3.12785640      -0.00008713       0.00004068      -0.00009430
H       22.00528459      27.83324610       2.43213077       0.00032365       0.00033679       0.00010156
O       22.89521205      16.97703534       2.49912684      -0.00040024      -0.00007564      -0.00000109
H       23.59715779      16.80075022       1.87216096       0.00006663      -0.00010856      -0.00014450
H       22.39842979      16.13889654       2.56781706       0.00032196      -0.00028131       0.00006493
O       21.50868436      19.31587314       2.50090973      -0.00022565       0.00007676      -0.00007344
H       20.80669863      19.13965775       3.12785640      -0.00008803       0.00003932      -0.00009388
H       22.00528461      18.47762976       2.43213077       0.00032139       0.00034235       0.00010148
O       22.89520912      21.65484299       2.49912844      -0.00009130      -0.00001056      -0.00022176
H       23.59715993      21.47855794       1.87215950      -0.00015837      -0.00005196       0.00005604
H       22.39843052      20.81670559       2.56781697       0.00024574      -0.00040176       0.00007783
O       21.50868609      23.99368086       2.50090881      -0.00040834       0.00013375       0.00005363
H       20.80669739      23.81746565       3.12785724       0.00004176       0.00007159      -0.00020905
H       22.00528416      23.15543851       2.43213082       0.00036892       0.00026275       0.00009494
O       22.89521083      26.33265136       2.49912751      -0.00027215      -0.00003964      -0.00009239
H       23.59715867      26.15636634       1.87216035      -0.00002573      -0.00008529      -0.00006168
H       22.39843010      25.49451325       2.56781702       0.00029007      -0.00033690       0.00007013
O       24.92436244      14.63806508       2.50091002      -0.00016493       0.00006494      -0.00011468
H       24.22237764      14.46184969       3.12785614      -0.00012803       0.00002708      -0.00005774
H       25.42096305      27.83324635       2.43213079       0.00034335       0.00030292       0.00009890
O       26.31088655      16.97703455       2.49912907       0.00003898       0.00002869      -0.00031046
H       27.01283941      16.80074962       1.87215894      -0.00024829      -0.00002860       0.00013560
H       25.81410954      16.13889786       2.56781693       0.00020555      -0.00045737       0.00008327
O       24.92436227      19.31587313       2.50091013      -0.00014704       0.00007785      -0.00012982
H       24.22237780      19.13965786       3.12785604      -0.00014465       0.00002363      -0.00004335
H       25.42096346      18.47762960       2.43213074       0.00029980       0.00036423       0.00010632
O       26.31088954      21.65484324       2.49912746      -0.00027649      -0.00004342      -0.00008714
H       27.01283726      21.47855819       1.87216041      -0.00002204      -0.00008553      -0.00006790
H       25.81410878      20.81670508       2.56781702       0.00028605      -0.00033398       0.00007078