LAMMPS data file generated get_lammps_data.py [VK]

432 atoms
2 atom types

0.0 37.55653533774147 xlo xhi
0.0 37.29762171740641 ylo yhi
0.0 15.0 zlo zhi
-4.402358549718252 0.0 0.0 xy xz yz

Masses

1 1.008
2 15.999

Atoms

    1     2 4.5762438285722125  24.834982491893737  2.4843665
    2     1 4.957572522750246  23.935963541735347  2.34797194
    3     1 5.299752792693279  25.49521430904247  2.3692244
    4     2 0.38505066462878357  22.99651526842984  2.51563325
    5     1 -0.5524693792279939  23.26983284176275  2.65202852
    6     1 0.9559220344396536  23.792428611791802  2.6307756199999996
    7     2 5.479568331695922  22.189132329930544  2.59591463
    8     1 5.336970858505026  22.220051244083994  3.5600741
    9     1 6.4718839884476616  22.023466950454992  2.51186917
   10     2 3.1772499392446836  29.799737179071144  2.40408511
   11     1 3.224670853329481  29.661747100810114  1.43992548
   12     1 2.8964078551650974  30.765792667440156  2.48813085
   13     2 3.8816252615922573  19.888383817234054  2.4843665
   14     1 2.9441033732720228  20.161699270436173  2.34797072
   15     1 4.4524946739977445  20.684295033822835  2.3692230599999995
   16     2 1.079672825031338  27.943118000652095  2.51563325
   17     1 1.4610002784902214  27.04409726336864  2.65202975
   18     1 1.8031799995072688  28.60334845172239  2.6307774
   19     2 1.9829932456742074  25.297271012732093  2.40408511
   20     1 1.8403959052848002  25.32818345348894  1.43992588
   21     1 2.9753087619939773  25.131597904215287  2.4881285
   22     2 6.673827901165824  26.691601626222045  2.59591463
   23     1 6.721242747944636  26.55361125487729  3.56007458
   24     1 6.392978665207772  27.65765695605296  2.51187107
   25     2 10.10193995730836  31.051252775202016  2.4843665
   26     1 10.483268651486389  30.152233825043623  2.34797194
   27     1 10.825448921429423  31.711484592350747  2.3692244
   28     2 5.910746793364932  29.21278555173812  2.51563325
   29     1 4.973226749508155  29.48610312507103  2.65202852
   30     1 6.481618163175805  30.008698895100085  2.6307756199999996
   31     2 11.00526446043207  28.405402613238824  2.59591463
   32     1 10.862666987241179  28.43632152739228  3.5600741
   33     1 11.99758011718381  28.23973723376327  2.51186917
   34     2 8.702946067980827  36.01600746237942  2.40408511
   35     1 8.750366982065625  35.87801738411839  1.43992548
   36     1 8.422103983901248  36.98206295074844  2.48813085
   37     2 9.407321390328404  26.104654100542334  2.4843665
   38     1 8.469799502008168  26.377969553744453  2.34797072
   39     1 9.978190802733891  26.900565317131118  2.3692230599999995
   40     2 6.605368953767486  34.159388283960375  2.51563325
   41     1 6.986696407226367  33.26036754667692  2.65202975
   42     1 7.328876128243416  34.81961873503067  2.6307774
   43     2 7.508689374410359  31.513541296040376  2.40408511
   44     1 7.366092034020944  31.544453736797216  1.43992588
   45     1 8.501004890730126  31.347868187523567  2.4881285
   46     2 12.199524029901974  32.90787190953033  2.59591463
   47     1 12.246938876680783  32.769881538185565  3.56007458
   48     1 11.918674793943923  33.873927239361244  2.51187107
   49     2 6.0436966694588685  12.402441919300927  2.4843665
   50     1 6.4250253636368955  11.503422969142537  2.34797194
   51     1 6.767205633579931  13.062673736449659  2.3692244
   52     2 1.852503505515438  10.563974695837027  2.51563325
   53     1 0.9149834616586578  10.837292269169938  2.65202852
   54     1 2.4233748753263082  11.359888039198994  2.6307756199999996
   55     2 6.947021172582575  9.756591757337732  2.59591463
   56     1 6.804423699391681  9.787510671491185  3.5600741
   57     1 7.939336829334315  9.590926377862182  2.51186917
   58     2 4.644702780131331  17.367196606478323  2.40408511
   59     1 4.69212369421613  17.229206528217297  1.43992548
   60     1 4.363860696051753  18.333252094847353  2.48813085
   61     2 5.3490781024789085  7.455843244641242  2.4843665
   62     1 4.411556214158674  7.729158697843363  2.34797072
   63     1 5.919947514884399  8.251754461230025  2.3692230599999995
   64     2 2.5471256659179917  15.510577428059284  2.51563325
   65     1 2.9284531193768695  14.611556690775831  2.65202975
   66     1 3.270632840393924  16.170807879129583  2.6307774
   67     2 3.450446086560863  12.864730440139287  2.40408511
   68     1 3.3078487461714494  12.895642880896125  1.43992588
   69     1 4.442761602880627  12.699057331622473  2.4881285
   70     2 8.14128074205248  14.259061053629237  2.59591463
   71     1 8.188695588831292  14.12107068228448  3.56007458
   72     1 7.860431506094426  15.225116383460152  2.51187107
   73     2 11.569392804838733  18.618712210083224  2.4843665
   74     1 11.950721499016767  17.71969325992484  2.34797194
   75     1 12.292901768959798  19.278944027231958  2.3692244
   76     2 7.378199640895308  16.780244986619326  2.51563325
   77     1 6.44067959703853  17.05356255995224  2.65202852
   78     1 7.9490710107061755  17.576158329981293  2.6307756199999996
   79     2 12.47271730796244  15.972862048120028  2.59591463
   80     1 12.330119834771551  16.00378096227349  3.5600741
   81     1 13.465032964714183  15.80719666864448  2.51186917
   82     2 10.170398915511205  23.583466897260628  2.40408511
   83     1 10.217819829596  23.445476818999598  1.43992548
   84     1 9.889556831431623  24.549522385629654  2.48813085
   85     2 10.874774237858778  13.672113535423543  2.4843665
   86     1 9.937252349538543  13.945428988625663  2.34797072
   87     1 11.44564365026427  14.468024752012326  2.3692230599999995
   88     2 8.072821801297867  21.726847718841586  2.51563325
   89     1 8.454149254756743  20.827826981558136  2.65202975
   90     1 8.796328975773791  22.387078169911877  2.6307774
   91     2 8.97614222194073  19.081000730921584  2.40408511
   92     1 8.833544881551322  19.111913171678427  1.43992588
   93     1 9.968457738260497  18.915327622404774  2.4881285
   94     2 13.666976877432344  20.475331344411533  2.59591463
   95     1 13.71439172421116  20.337340973066777  3.56007458
   96     1 13.386127641474296  21.441386674242455  2.51187107
   97     2 17.095088933574885  24.834982493391507  2.4843665
   98     1 17.47641762775291  23.935963543233118  2.34797194
   99     1 17.818597897695945  25.495214310540238  2.3692244
  100     2 12.903895769631456  22.996515269927606  2.51563325
  101     1 11.966375725774675  23.269832843260517  2.65202852
  102     1 13.474767139442328  23.792428613289573  2.6307756199999996
  103     2 17.99841343669859  22.18913233142831  2.59591463
  104     1 17.855815963507702  22.220051245581768  3.5600741
  105     1 18.99072909345033  22.02346695195276  2.51186917
  106     2 15.696095044247347  29.799737180568904  2.40408511
  107     1 15.743515958332143  29.661747102307874  1.43992548
  108     1 15.415252960167766  30.76579266893793  2.48813085
  109     2 16.400470366594927  19.88838381873182  2.4843665
  110     1 15.46294847827469  20.161699271933944  2.34797072
  111     1 16.971339779000417  20.684295035320606  2.3692230599999995
  112     2 13.59851793003401  27.943118002149863  2.51563325
  113     1 13.979845383492886  27.044097264866412  2.65202975
  114     1 14.322025104509938  28.603348453220164  2.6307774
  115     2 14.501838350676877  25.297271014229864  2.40408511
  116     1 14.359241010287466  25.328183454986707  1.43992588
  117     1 15.494153866996646  25.131597905713054  2.4881285
  118     2 19.192673006168498  26.69160162771982  2.59591463
  119     1 19.240087852947312  26.553611256375056  3.56007458
  120     1 18.911823770210443  27.657656957550735  2.51187107
  121     2 22.62078506895475  31.051252784173805  2.4843665
  122     1 23.00211376313278  30.152233834015416  2.34797194
  123     1 23.344294033075816  31.71148460132254  2.3692244
  124     2 18.429591905011318  29.212785560709904  2.51563325
  125     1 17.492071861154542  29.486103134042818  2.65202852
  126     1 19.00046327482219  30.00869890407187  2.6307756199999996
  127     2 23.52410957207846  28.405402622210612  2.59591463
  128     1 23.381512098887566  28.436321536364066  3.5600741
  129     1 24.516425228830194  28.23973724273506  2.51186917
  130     2 21.221791179627214  36.01600747135121  2.40408511
  131     1 21.269212093712017  35.87801739309018  1.43992548
  132     1 20.940949095547637  36.98206295972023  2.48813085
  133     2 21.926166501974794  26.10465410951412  2.4843665
  134     1 20.98864461365456  26.377969562716245  2.34797072
  135     1 22.49703591438029  26.900565326102907  2.3692230599999995
  136     2 19.124214065413877  34.159388292932164  2.51563325
  137     1 19.505541518872754  33.26036755564871  2.65202975
  138     1 19.847721239889804  34.819618744002454  2.6307774
  139     2 20.027534486056744  31.513541305012165  2.40408511
  140     1 19.88493714566734  31.544453745769005  1.43992588
  141     1 21.019850002376508  31.347868196495348  2.4881285
  142     2 24.71836914154836  32.90787191850212  2.59591463
  143     1 24.76578398832718  32.76988154715736  3.56007458
  144     1 24.437519905590314  33.87392724833303  2.51187107
  145     2 3.108790973567821  37.26752306365625  2.4843665
  146     1 3.4901196677458484  36.368504113497856  2.34797194
  147     1 8.234658488584326  0.6301331646871461  2.3692244
  148     2 -1.082402190375613  35.42905584019235  2.51563325
  149     1 -2.0199222342323817  35.702373413525265  2.65202852
  150     1 -0.5115308205647399  36.22496918355432  2.6307756199999996
  151     2 4.012115476691525  34.62167290169305  2.59591463
  152     1 3.869518003500634  34.65259181584651  3.5600741
  153     1 5.0044311334432665  34.456007522217504  2.51186917
  154     2 6.112155635135725  4.934656034715814  2.40408511
  155     1 6.159576549220525  4.796665956454787  1.43992548
  156     1 5.8313135510561445  5.90071152308484  2.48813085
  157     2 2.4141724065878636  32.32092438899657  2.4843665
  158     1 1.4766505182676306  32.59423984219869  2.34797072
  159     1 2.9850418189933525  33.11683560558535  2.3692230599999995
  160     2 4.014578520922387  3.078036856296773  2.51563325
  161     1 4.395905974381265  2.179016119013319  2.65202975
  162     1 4.738085695398316  3.7382673073670696  2.6307774
  163     2 4.917898941565256  0.43218986837677376  2.40408511
  164     1 4.775301601175843  0.46310230913361256  1.43992588
  165     1 5.910214457885021  0.2665167598599612  2.4881285
  166     2 9.608733597056872  1.8265204818667247  2.59591463
  167     1 9.656148443835686  1.6885301105219672  3.56007458
  168     1 9.327884361098821  2.792575811697641  2.51187107
  169     2 13.03684565319941  6.186171630846694  2.4843665
  170     1 13.418174347377436  5.287152680688304  2.34797194
  171     1 13.760354617320473  6.846403447995426  2.3692244
  172     2 8.84565248925598  4.347704407382795  2.51563325
  173     1 7.9081324453991995  4.621021980715704  2.65202852
  174     1 9.416523859066851  5.143617750744761  2.6307756199999996
  175     2 13.940170156323118  3.5403214688834983  2.59591463
  176     1 13.797572683132222  3.5712403830369546  3.5600741
  177     1 14.932485813074853  3.374656089407948  2.51186917
  178     2 11.63785176387187  11.150926318024093  2.40408511
  179     1 11.685272677956673  11.012936239763066  1.43992548
  180     1 11.357009679792297  12.11698180639312  2.48813085
  181     2 12.342227086219449  1.2395729561870095  2.4843665
  182     1 11.404705197899217  1.5128884093891306  2.34797072
  183     1 12.91309649862494  2.035484172775794  2.3692230599999995
  184     2 9.540274649658535  9.294307139605053  2.51563325
  185     1 9.921602103117413  8.395286402321599  2.65202975
  186     1 10.263781824134464  9.954537590675349  2.6307774
  187     2 10.443595070301402  6.648460151685053  2.40408511
  188     1 10.300997729911991  6.679372592441892  1.43992588
  189     1 11.43591058662117  6.482787043168241  2.4881285
  190     2 15.134429725793018  8.042790765175004  2.59591463
  191     1 15.181844572571833  7.9048003938302465  3.56007458
  192     1 14.853580489834968  9.008846095005921  2.51187107
  193     2 18.562541788579278  12.402441921628993  2.4843665
  194     1 18.94387048275731  11.503422971470604  2.34797194
  195     1 19.286050752700337  13.062673738777725  2.3692244
  196     2 14.371348624635846  10.563974698165095  2.51563325
  197     1 13.43382858077907  10.837292271498006  2.65202852
  198     1 14.942219994446718  11.359888041527062  2.6307756199999996
  199     2 19.465866291702984  9.756591759665795  2.59591463
  200     1 19.32326881851209  9.787510673819252  3.5600741
  201     1 20.458181948454715  9.590926380190247  2.51186917
  202     2 17.163547899251736  17.367196608806392  2.40408511
  203     1 17.210968813336542  17.229206530545365  1.43992548
  204     1 16.88270581517216  18.333252097175418  2.48813085
  205     2 17.867923221599316  7.45584324696931  2.4843665
  206     1 16.930401333279086  7.72915870017143  2.34797072
  207     1 18.43879263400481  8.251754463558093  2.3692230599999995
  208     2 15.065970785038402  15.510577430387354  2.51563325
  209     1 15.447298238497284  14.611556693103898  2.65202975
  210     1 15.789477959514329  16.170807881457648  2.6307774
  211     2 15.969291205681271  12.86473044246735  2.40408511
  212     1 15.82669386529186  12.895642883224193  1.43992588
  213     1 16.961606722001036  12.699057333950542  2.4881285
  214     2 20.660125861172883  14.259061055957302  2.59591463
  215     1 20.7075407079517  14.121070684612548  3.56007458
  216     1 20.37927662521484  15.225116385788219  2.51187107
  217     2 24.088237917315425  18.618712204937275  2.4843665
  218     1 24.469566611493452  17.719693254778882  2.34797194
  219     1 24.811746881436484  19.278944022086005  2.3692244
  220     2 19.897044753371993  16.780244981473373  2.51563325
  221     1 18.959524709515218  17.053562554806284  2.65202852
  222     1 20.46791612318287  17.57615832483534  2.6307756199999996
  223     2 24.99156242043913  15.972862042974077  2.59591463
  224     1 24.848964947248238  16.003780957127532  3.5600741
  225     1 25.98387807719087  15.807196663498527  2.51186917
  226     2 22.68924402798789  23.583466892114675  2.40408511
  227     1 22.736664942072682  23.44547681385364  1.43992548
  228     1 22.408401943908306  24.549522380483698  2.48813085
  229     2 23.39361935033546  13.672113530277588  2.4843665
  230     1 22.456097462015236  13.945428983479712  2.34797072
  231     1 23.964488762740956  14.468024746866373  2.3692230599999995
  232     2 20.59166691377455  21.726847713695634  2.51563325
  233     1 20.972994367233426  20.827826976412176  2.65202975
  234     1 21.315174088250476  22.387078164765928  2.6307774
  235     2 21.494987334417424  19.081000725775635  2.40408511
  236     1 21.352389994028005  19.11191316653247  1.43992588
  237     1 22.487302850737187  18.915327617258818  2.4881285
  238     2 26.18582198990904  20.475331339265587  2.59591463
  239     1 26.233236836687848  20.337340967920824  3.56007458
  240     1 25.904972753950982  21.4413866690965  2.51187107
  241     2 29.613934052695292  24.834982495719572  2.4843665
  242     1 29.99526274687332  23.93596354556118  2.34797194
  243     1 30.337443016816366  25.49521431286831  2.3692244
  244     2 25.422740888751864  22.99651527225567  2.51563325
  245     1 24.485220844895085  23.269832845588585  2.65202852
  246     1 25.993612258562734  23.79242861561764  2.6307756199999996
  247     2 30.517258555819  22.189132333756376  2.59591463
  248     1 30.37466108262811  22.220051247909833  3.5600741
  249     1 31.50957421257074  22.023466954280828  2.51186917
  250     2 28.214940163367757  29.799737182896973  2.40408511
  251     1 28.26236107745256  29.66174710463595  1.43992548
  252     1 27.93409807928818  30.765792671265995  2.48813085
  253     2 28.91931548571533  19.888383821059882  2.4843665
  254     1 27.9817935973951  20.16169927426201  2.34797072
  255     1 29.490184898120823  20.684295037648674  2.3692230599999995
  256     2 26.117363049154417  27.94311800447793  2.51563325
  257     1 26.498690502613297  27.044097267194477  2.65202975
  258     1 26.840870223630347  28.60334845554823  2.6307774
  259     2 27.020683469797287  25.297271016557932  2.40408511
  260     1 26.878086129407873  25.32818345731477  1.43992588
  261     1 28.01299898611705  25.131597908041115  2.4881285
  262     2 31.711518125288904  26.691601630047884  2.59591463
  263     1 31.75893297206772  26.55361125870313  3.56007458
  264     1 31.43066888933085  27.6576569598788  2.51187107
  265     2 -2.416905155168323  31.051252780347973  2.4843665
  266     1 -2.035576460990296  30.15223383018958  2.34797194
  267     1 -1.6933961910472644  31.711484597496703  2.3692244
  268     2 30.948437017488008  29.212785555563954  2.51563325
  269     1 30.01091697363123  29.48610312889686  2.65202852
  270     1 31.519308387298885  30.00869889892592  2.6307756199999996
  271     2 -1.5135806520446184  28.405402618384773  2.59591463
  272     1 -1.6561781252355103  28.436321532538233  3.5600741
  273     1 -0.5212649952928766  28.23973723890923  2.51186917
  274     2 -3.815899044495864  36.01600746752537  2.40408511
  275     1 -3.768478130411061  35.87801738926434  1.43992548
  276     1 -4.096741128575437  36.9820629558944  2.48813085
  277     2 34.44501161445148  26.10465410436817  2.4843665
  278     1 33.50748972613124  26.37796955757029  2.34797072
  279     1 -2.540654309742792  26.90056532227707  2.3692230599999995
  280     2 31.643059177890564  34.15938828778621  2.51563325
  281     1 32.024386631349444  33.26036755050276  2.65202975
  282     1 32.3665663523665  34.81961873885651  2.6307774
  283     2 32.546379598533434  31.513541299866215  2.40408511
  284     1 32.40378225814402  31.544453740623048  1.43992588
  285     1 33.5386951148532  31.347868191349395  2.4881285
  286     2 -0.31932108257471786  32.90787191467628  2.59591463
  287     1 -0.27190623579590245  32.76988154333152  3.56007458
  288     1 -0.6001703185327655  33.87392724450719  2.51187107
  289     2 15.627636092688233  37.267523065984314  2.4843665
  290     1 16.008964786866255  36.36850411582592  2.34797194
  291     1 20.753503601061016  0.6301331595411928  2.3692244
  292     2 11.4364429287448  35.42905584252041  2.51563325
  293     1 10.498922884888021  35.70237341585333  2.65202852
  294     1 12.00731429855567  36.22496918588239  2.6307756199999996
  295     2 16.530960595811937  34.621672904021125  2.59591463
  296     1 16.388363122621044  34.65259181817458  3.5600741
  297     1 17.52327625256368  34.45600752454557  2.51186917
  298     2 18.63100074761241  4.934656029569861  2.40408511
  299     1 18.678421661697215  4.796665951308833  1.43992548
  300     1 18.350158663532838  5.900711517938888  2.48813085
  301     2 14.93301752570827  32.32092439132463  2.4843665
  302     1 13.99549563738804  32.594239844526754  2.34797072
  303     1 15.503886938113759  33.116835607913416  2.3692230599999995
  304     2 16.533423633399075  3.078036851150819  2.51563325
  305     1 16.914751086857954  2.1790161138673665  2.65202975
  306     1 17.256930807875005  3.7382673022211166  2.6307774
  307     2 17.436744054041945  0.4321898632308216  2.40408511
  308     1 17.294146713652527  0.46310230398765945  1.43992588
  309     1 18.42905957036171  0.2665167547140084  2.4881285
  310     2 22.127578709533562  1.8265204767207714  2.59591463
  311     1 22.174993556312373  1.688530105376014  3.56007458
  312     1 21.84672947357551  2.7925758065516884  2.51187107
  313     2 25.55569077231981  6.186171633174761  2.4843665
  314     1 25.937019466497844  5.28715268301637  2.34797194
  315     1 26.279199736440884  6.846403450323492  2.3692244
  316     2 21.36449760837639  4.347704409710862  2.51563325
  317     1 20.42697756451961  4.621021983043772  2.65202852
  318     1 21.935368978187256  5.143617753072829  2.6307756199999996
  319     2 26.459015275443527  3.5403214712115654  2.59591463
  320     1 26.316417802252627  3.5712403853650203  3.5600741
  321     1 27.451330932195265  3.374656091736014  2.51186917
  322     2 24.156696882992286  11.150926320352163  2.40408511
  323     1 24.204117797077085  11.012936242091135  1.43992548
  324     1 23.8758547989127  12.116981808721185  2.48813085
  325     2 24.86107220533986  1.2395729585150763  2.4843665
  326     1 23.92355031701962  1.5128884117171961  2.34797072
  327     1 25.431941617745352  2.03548417510386  2.3692230599999995
  328     2 22.05911976877895  9.294307141933121  2.51563325
  329     1 22.440447222237818  8.395286404649667  2.65202975
  330     1 22.78262694325487  9.954537593003417  2.6307774
  331     2 22.96244018942181  6.64846015401312  2.40408511
  332     1 22.8198428490324  6.67937259476996  1.43992588
  333     1 23.95475570574158  6.482787045496309  2.4881285
  334     2 27.653274844913426  8.04279076750307  2.59591463
  335     1 27.700689691692244  7.904800396158314  3.56007458
  336     1 27.372425608955375  9.008846097333986  2.51187107
  337     2 31.081386901055964  12.402441916483042  2.4843665
  338     1 31.46271559523399  11.503422966324647  2.34797194
  339     1 31.804895865177023  13.062673733631772  2.3692244
  340     2 26.89019373711253  10.56397469301914  2.51563325
  341     1 25.952673693255754  10.83729226635205  2.65202852
  342     1 27.461065106923407  11.359888036381108  2.6307756199999996
  343     2 31.98471140417967  9.756591754519846  2.59591463
  344     1 31.84211393098878  9.7875106686733  3.5600741
  345     1 32.97702706093141  9.590926375044294  2.51186917
  346     2 29.68239301172843  17.367196603660442  2.40408511
  347     1 29.72981392581323  17.22920652539941  1.43992548
  348     1 29.40155092764885  18.33325209202947  2.48813085
  349     2 30.386768334076002  7.455843241823357  2.4843665
  350     1 29.449246445755772  7.729158695025476  2.34797072
  351     1 30.9576377464815  8.25175445841214  2.3692230599999995
  352     2 27.58481589751509  15.510577425241397  2.51563325
  353     1 27.966143350973972  14.611556687957945  2.65202975
  354     1 28.30832307199102  16.170807876311695  2.6307774
  355     2 28.488136318157963  12.8647304373214  2.40408511
  356     1 28.345538977768545  12.895642878078236  1.43992588
  357     1 29.480451834477726  12.699057328804587  2.4881285
  358     2 33.17897097364958  14.259061050811352  2.59591463
  359     1 33.22638582042839  14.121070679466593  3.56007458
  360     1 32.898121737691525  15.225116380642266  2.51187107
  361     2 -0.949452306807653  18.61871220111144  2.4843665
  362     1 -0.5681236126296239  17.71969325095305  2.34797194
  363     1 -0.2259433426865894  19.27894401826017  2.3692244
  364     2 32.4158898724924  16.78024498380144  2.51563325
  365     1 31.47836982863563  17.053562557134352  2.65202852
  366     1 32.986761242303274  17.576158327163405  2.6307756199999996
  367     2 -0.04612780368394415  15.972862039148245  2.59591463
  368     1 -0.18872527687483986  16.0037809533017  3.5600741
  369     1 0.9461878530677915  15.807196659672691  2.51186917
  370     2 -2.3484461961351917  23.583466888288836  2.40408511
  371     1 -2.301025282050389  23.44547681002781  1.43992548
  372     1 -2.629288280214765  24.549522376657865  2.48813085
  373     2 35.91246446945588  13.672113532605653  2.4843665
  374     1 34.97494258113564  13.945428985807778  2.34797072
  375     1 -1.0732014613821217  14.468024743040537  2.3692230599999995
  376     2 33.11051203289495  21.7268477160237  2.51563325
  377     1 33.49183948635383  20.827826978740244  2.65202975
  378     1 33.834019207370886  22.387078167093996  2.6307774
  379     2 34.01383245353783  19.0810007281037  2.40408511
  380     1 33.87123511314841  19.111913168860536  1.43992588
  381     1 35.006147969857594  18.915327619586883  2.4881285
  382     2 1.1481317657859562  20.475331335439748  2.59591463
  383     1 1.1955466125647696  20.33734096409499  3.56007458
  384     1 0.8672825298279085  21.441386665270667  2.51187107
  385     2 28.1464811976909  37.26752306748208  2.4843665
  386     1 28.527809891868927  36.368504117323695  2.34797194
  387     1 33.272348712707405  0.6301331685129822  2.3692244
  388     2 23.95528803374747  35.42905584401819  2.51563325
  389     1 23.01776798989069  35.70237341735109  2.65202852
  390     1 24.526159403558346  36.22496918738016  2.6307756199999996
  391     2 29.049805700814606  34.62167290551889  2.59591463
  392     1 28.907208227623713  34.652591819672345  3.5600741
  393     1 30.042121357566348  34.456007526043344  2.51186917
  394     2 31.149845859258804  4.9346560385416485  2.40408511
  395     1 31.197266773343603  4.796665960280623  1.43992548
  396     1 30.869003775179223  5.900711526910673  2.48813085
  397     2 27.451862630710938  32.3209243928224  2.4843665
  398     1 26.514340742390708  32.59423984602452  2.34797072
  399     1 28.02273204311643  33.11683560941118  2.3692230599999995
  400     2 29.052268745045463  3.0780368601226082  2.51563325
  401     1 29.433596198504343  2.1790161228391556  2.65202975
  402     1 29.77577591952139  3.7382673111929017  2.6307774
  403     2 29.955589165688334  0.43218987220260835  2.40408511
  404     1 29.812991825298923  0.4631023129594475  1.43992588
  405     1 30.947904682008105  0.2665167636857991  2.4881285
  406     2 34.646423821179944  1.8265204856925568  2.59591463
  407     1 34.69383866795876  1.688530114347802  3.56007458
  408     1 34.3655745852219  2.792575815523474  2.51187107
  409     2 0.5180005407227203  6.186171635992646  2.4843665
  410     1 0.8993292349007487  5.287152685834257  2.34797194
  411     1 1.2415095048437843  6.84640345314138  2.3692244
  412     2 33.88334271337906  4.347704411208627  2.51563325
  413     1 32.94582266952228  4.621021984541538  2.65202852
  414     1 34.45421408318993  5.143617754570599  2.6307756199999996
  415     2 1.4213250438464264  3.5403214740294504  2.59591463
  416     1 1.2787275706555334  3.5712403881829067  3.5600741
  417     1 2.413640700598167  3.374656094553902  2.51186917
  418     2 -0.8809933486048152  11.150926323170046  2.40408511
  419     1 -0.8335724345200137  11.012936244909021  1.43992548
  420     1 -1.1618354326843954  12.116981811539073  2.48813085
  421     2 37.37991731034252  1.2395729600128451  2.4843665
  422     1 36.4423954220223  1.5128884132149647  2.34797072
  423     1 0.39425138614825195  2.0354841779217465  2.3692230599999995
  424     2 34.57796487378161  9.294307143430887  2.51563325
  425     1 34.95929232724049  8.395286406147433  2.65202975
  426     1 35.301472048257544  9.954537594501183  2.6307774
  427     2 35.48128529442448  6.648460155510889  2.40408511
  428     1 35.338687954035066  6.679372596267725  1.43992588
  429     1 36.47360081074424  6.482787046994076  2.4881285
  430     2 2.6155846133163307  8.042790770320957  2.59591463
  431     1 2.662999460095145  7.9048003989761995  3.56007458
  432     1 2.3347353773582813  9.008846100151874  2.51187107

